LAMMPS (27 Oct 2021)
# Compute elastic constant tensor for a crystal
#
# Written by Aidan Thompson (Sandia, athomps@sandia.gov)
#
#  This script uses the following three include files.
#
#   init.mod      (must be modified for different crystal structures)
# 	       	  Define units, deformation parameters and initial
#		  configuration of the atoms and simulation cell.
#
#
#   potential.mod    (must be modified for different pair styles)
# 		     Define pair style and other attributes
#		     not stored in restart file
#
#
#   displace.mod    (displace.mod should not need to be modified)
# 		    Perform positive and negative box displacements
# 		    in direction ${dir} and size ${up}.
# 		    It uses the resultant changes
#		    in stress to compute one
# 		    row of the elastic stiffness tensor
#
#		    Inputs variables:
#		    	   dir = the Voigt deformation component
#		    		    (1,2,3,4,5,6)
#		    Global constants:
#       	    	   up = the deformation magnitude (strain units)
#       		   cfac = conversion from LAMMPS pressure units to
#               	   output units for elastic constants
#
#
#  To run this on a different system, it should only be necessary to
#  modify the files init.mod and potential.mod. In order to calculate
#  the elastic constants correctly, care must be taken to specify
#  the correct units in init.mod (units, cfac and cunits). It is also
#  important to verify that the minimization of energy w.r.t atom
#  positions in the deformed cell is fully converged.
#  One indication of this is that the elastic constants are insensitive
#  to the choice of the variable ${up} in init.mod. Another is to check
#  the final max and two-norm forces reported in the log file. If you know
#  that minimization is not required, you can set maxiter = 0.0 in
#  init.mod.
#

include init.mod
# NOTE: This script can be modified for different atomic structures,
# units, etc. See in.elastic for more info.
#

# Define the finite deformation size. Try several values of this
# variable to verify that results do not depend on it.
variable up equal 1.0e-6

# Define the amount of random jiggle for atoms
# This prevents atoms from staying on saddle points
variable atomjiggle equal 1.0e-5

# Uncomment one of these blocks, depending on what units
# you are using in LAMMPS and for output

# metal units, elastic constants in eV/A^3
#units		metal
#variable cfac equal 6.2414e-7
#variable cunits string eV/A^3

# metal units, elastic constants in GPa
units		metal
variable cfac equal 1.0e-4
variable cunits string GPa

# real units, elastic constants in GPa
#units		real
#variable cfac equal 1.01325e-4
#variable cunits string GPa

# Define minimization parameters
variable etol equal 0.0
variable ftol equal 1.0e-10
variable maxiter equal 100
variable maxeval equal 1000
variable dmax equal 1.0e-2

# generate the box and atom positions using a diamond lattice
#variable a equal 5.43
read_data Ni85-Co15/2.data
Reading data file ...
  triclinic box = (0.0000000 0.0000000 0.0000000) to (172.89763 183.38563 9.9822491) with tilt (0.0000000 0.0000000 0.0000000)
  1 by 1 by 1 MPI processor grid
  reading atoms ...
  28800 atoms
  reading velocities ...
  28800 velocities
  read_data CPU = 0.091 seconds
#boundary	p p p

#lattice         diamond $a
#region		box prism 0 2.0 0 3.0 0 4.0 0.0 0.0 0.0
#create_box	1 box
#create_atoms	1 box

# Need to set mass to something, just to satisfy LAMMPS
mass 1 1.0e-20

include potential.mod #NiCo-lammps-2014.alloy #
# NOTE: This script can be modified for different pair styles
# See in.elastic for more info.

# Choose potential
#pair_style	sw
#pair_coeff * * Si.sw Si
pair_style	eam/alloy
pair_coeff	* * NiCo-lammps-2014.alloy Ni Co

# Setup neighbor style
neighbor 1.0 nsq
neigh_modify once no every 1 delay 0 check yes

# Setup minimization style
min_style	     cg
min_modify	     dmax ${dmax} line quadratic
min_modify	     dmax 0.01 line quadratic

# Setup output
thermo		1
thermo_style custom step temp pe press pxx pyy pzz pxy pxz pyz lx ly lz vol
thermo_modify norm no

# Compute initial state
fix 3 all box/relax  aniso 0.0
minimize ${etol} ${ftol} ${maxiter} ${maxeval}
minimize 0 ${ftol} ${maxiter} ${maxeval}
minimize 0 1e-10 ${maxiter} ${maxeval}
minimize 0 1e-10 100 ${maxeval}
minimize 0 1e-10 100 1000
Neighbor list info ...
  update every 1 steps, delay 0 steps, check yes
  max neighbors/atom: 2000, page size: 100000
  master list distance cutoff = 7.5
  ghost atom cutoff = 7.5
  1 neighbor lists, perpetual/occasional/extra = 1 0 0
  (1) pair eam/alloy, perpetual
      attributes: half, newton on
      pair build: half/nsq/newton
      stencil: none
      bin: none
Per MPI rank memory allocation (min/avg/max) = 36.13 | 36.13 | 36.13 Mbytes
Step Temp PotEng Press Pxx Pyy Pzz Pxy Pxz Pyz Lx Ly Lz Volume 
       0            0    -127905.7   -3621.9216   -3644.6551   -3652.4171   -3568.6927   -5.9764676    -1.776054   -4.6857569    172.89763    183.38563    9.9822491    316506.56 
       1            0    -127905.9   -3082.5073   -3104.3117     -3111.03   -3032.1804   -5.3686022   -1.7646405   -4.6921752    172.88037    183.36729    9.9812737    316412.41 
       2            0   -127906.07   -2542.9101   -2563.6464   -2569.2471   -2495.8367   -4.6695071   -1.7532879   -4.6985989    172.86312    183.34895    9.9803008    316318.36 
       3            0    -127906.2   -2003.2784   -2022.7587     -2027.15   -1959.9263   -3.8485341   -1.7420064   -4.7050086    172.84587    183.33061    9.9793311    316224.43 
       4            0    -127906.3   -1463.8561   -1481.8085   -1484.8701   -1424.8896   -2.8537641   -1.7308182   -4.7113985    172.82862    183.31227     9.978366    316130.66 
       5            0   -127906.37   -925.12407   -941.10972   -942.67285   -891.58964     -1.58368   -1.7197513   -4.7177635    172.81136    183.29393    9.9774081    316037.13 
       6            0   -127906.41   -388.23868   -401.39401   -401.18522   -362.13681   0.21651047   -1.7088495   -4.7240884     172.7941    183.27559     9.976464    315944.05 
       7            0   -127906.42    5.5119579    -3.443492    -1.443429    21.422795     2.803831   -1.7010082   -4.7286519    172.78125    183.26197    9.9757945    315875.86 
       8            0   -127906.42   -1.4733643    89.304074    100.87061   -194.59478    59.727557   -1.7059671   -4.7242809    172.77188    183.25426    9.9767927    315877.05 
       9            0   -127906.46   -9.6910441     88.41903   -142.07857    24.586403    19.159074   -1.7018949   -4.7277614    172.77359    183.27158    9.9757945    315878.43 
      10            0   -127906.47    32.922827   -60.124918    133.26458     25.62882   -8.4196897   -1.7014669   -4.7302972    172.78667    183.25324    9.9758039    315871.04 
      11            0   -127906.48   -153.93929   -398.85463    140.37338   -203.33663   -28.627064   -1.7060992    -4.729673    172.80396    183.24539    9.9762538    315903.37 
      12            0   -127906.78    212.08172   -149.47093    589.24644    196.46965   -56.402741   -1.7024625   -4.7394777    172.80165    183.22706    9.9753703    315839.54 
      13            0   -127906.81    26.604187   -193.67477    236.54245    36.944884   -35.067179   -1.7064781   -4.7359512    172.79679    183.24539    9.9756643    315871.59 
      14            0   -127906.81   -35.101766    -45.81535   -49.141583   -10.348364   0.92557361   -1.7080383    -4.732635    172.78264    183.26373    9.9758202    315882.26 
      15            0   -127906.81    55.333283    72.633192    38.542539    54.824118    10.728393   -1.7067976   -4.7330047    172.77739     183.2609    9.9757828     315866.6 
      16            0   -127906.82   -7.4185544    116.93602    54.187341   -193.37902    64.660447   -1.7124189   -4.7281909    172.76942    183.25731     9.976781    315877.45 
      17            0   -127906.84   -125.84835    -150.5342   -141.07929   -85.931568   -4.4210363     -1.71006   -4.7322545    172.78671    183.26685    9.9759099    315897.92 
      18            0   -127906.85    175.63582    140.05725    161.89141    224.95879   -8.2130996   -1.7037134   -4.7362685    172.77812    183.25664    9.9753133    315845.73 
      19            0   -127906.85    390.01229    354.88437    387.15232    428.00018   -6.0781356   -1.6996899   -4.7388062    172.77121    183.24868    9.9749739    315808.63 
      20            0   -127906.95     374.2064    420.71085    497.82057    204.08778     47.38058   -1.7062256   -4.7355126    172.76351       183.24    9.9759721     315811.2 
      21            0   -127906.96   -40.824146   -5.4043725    21.473571   -138.54164    32.019301   -1.7132507   -4.7316494    172.77811    183.25834    9.9763988    315883.01 
      22            0   -127906.96    -9.054778   -9.9484808   -58.610149    41.394295   -1.9770375   -1.7093767   -4.7346829    172.78124     183.2654    9.9756601    315877.52 
      23            0   -127906.96    176.76074    76.743866    218.40907    235.12927   -21.741161   -1.7051821   -4.7384273    172.78312    183.25255    9.9752354    315845.35 
      24            0   -127906.98    26.242182    -242.5241     296.2208    25.029845   -41.853879   -1.7093681   -4.7381295    172.80041      183.241    9.9756883    315871.38 
      25            0   -127906.99   -102.08356   -182.77927   -25.434984   -98.036436   -8.1177126   -1.7125576   -4.7342279    172.78994    183.25934    9.9759951    315893.57 
      26            0   -127906.99    49.657292    27.321566    64.360088    57.290221       1.9527   -1.7095168   -4.7353676    172.78066    183.25876    9.9757328     315867.3 
      27            0   -127906.99    9.6017164    101.91593   -85.074664    11.963879    24.058362   -1.7107941   -4.7332994      172.773    183.26805    9.9758884    315874.23 
      28            0      -127907   -277.47803   -217.73581   -248.44671   -366.25157    34.883664   -1.7187279   -4.7289917    172.78377    183.26867    9.9768018    315923.92 
      29            0   -127907.02   -181.20206   -232.53319     55.71236   -366.78534     32.25319   -1.7187905   -4.7304083    172.78846    183.25033    9.9770016    315907.22 
      30            0   -127907.02    97.386604    85.448676    180.63419    26.076948    18.415145   -1.7107366   -4.7349708    172.77763    183.25217    9.9760034    315858.99 
      31            0   -127907.02    12.573383    34.127367   -46.864668     50.45745    4.4803546   -1.7102837   -4.7350842    172.77869    183.26538    9.9756872    315873.67 
      32            0   -127907.03    -117.4638   -138.67019   -104.08371   -109.63749    2.1576325   -1.7135209   -4.7336422    172.78584    183.26444    9.9760362    315896.18 
      33            0   -127907.03    2.0630569   -113.97702    212.74949   -92.583299    3.5373449   -1.7130641    -4.734931     172.7885     183.2461    9.9762275    315875.48 
      34            0   -127907.04    209.76279    242.23232      185.596    201.46004    14.976417   -1.7075577   -4.7368846    172.77121    183.25621    9.9755397    315839.51 
      35            0   -127907.05   -71.905314    26.491855   -218.66199   -23.545804    16.725608   -1.7124938   -4.7334714    172.77549    183.27455    9.9758332    315888.25 
      36            0   -127907.07   -222.19866   -291.45775   -152.41677   -222.72145   -5.1336283   -1.7165563   -4.7333583    172.79278    183.26383    9.9762386    315914.24 
      37            0   -127907.09    168.52157     51.39022    310.65791    143.51658   -9.5164762   -1.7091097   -4.7385628    172.78393     183.2455    9.9756114    315846.58 
      38            0   -127907.12     471.3584    454.70035    506.71169    452.66315    7.8091097   -1.7037079    -4.741458    172.76664    183.24311     9.975083    315794.13 
      39            0   -127907.17    163.57278    242.24033    88.081437    160.39657    22.573565   -1.7106047   -4.7370129     172.7691    183.26145    9.9756222     315847.3 
      40            0   -127907.17   -23.171796    18.564247   -58.908107   -29.171529    16.312179     -1.71444   -4.7351746    172.77783    183.26481    9.9759558    315879.62 
      41            0   -127907.17    8.5032531    -51.10311    72.900327    3.7125417   -2.5925832   -1.7135045   -4.7369314    172.78468    183.25648    9.9758405    315874.14 
      42            0   -127907.19    4.5520488   -141.22627   -59.972498    214.85492   -58.058112   -1.7091284   -4.7413259    172.79339    183.26597    9.9748423    315874.81 
      43            0    -127907.2   -14.008555   -13.525629   -25.676989   -2.8230463    5.5478102   -1.7142707   -4.7363621    172.78088    183.26275    9.9758405    315877.99 
      44            0    -127907.2    109.07226    103.11333    144.64198    79.461471    11.858797   -1.7125946   -4.7373805    172.77713     183.2552    9.9757953    315856.68 
      45            0   -127907.22    6.1173782   -11.223178    235.82138   -206.24606    43.471882   -1.7188028   -4.7337399    172.77962    183.24453    9.9767935    315874.48 
      46            0   -127907.23   -81.994023   -51.255401   -64.143895   -130.58277    22.148996   -1.7174479    -4.734496    172.78014    183.26287    9.9762465    315889.71 
      47            0   -127907.23    63.548276    78.168481     52.85963    59.616715     10.93067   -1.7134562   -4.7371519    172.77719    183.26007    9.9757736    315864.52 
      48            0   -127907.23    139.28859    60.289645    63.937299    293.63882   -35.484306   -1.7083627   -4.7416554    172.78346    183.26223    9.9748806    315851.42 
      49            0   -127907.24   -152.80338   -321.03535   -236.83649    99.461686     -69.8568   -1.7122539   -4.7407607    172.80046    183.27264    9.9749287    315901.98 
      50            0   -127907.26   -222.48849   -360.31794   -145.24931    -161.8982    -28.98605   -1.7182535   -4.7369496     172.7986    183.26325    9.9759269    315913.99 
      51            0   -127907.27      82.2708    21.789751     121.6136    103.40905   -7.5276186       -1.713   -4.7391093    172.78263     183.2558     9.975588    315861.22 
      52            0   -127907.27    80.553972     200.8134    5.6419306     35.20659    38.036481   -1.7149668    -4.735759     172.7681    183.26416    9.9759813    315861.51 
      53            0   -127907.27   -111.50951    7.8135098   -175.19207   -167.14996    39.779711   -1.7192098    -4.733287    172.77414    183.26977    9.9763766    315894.75 
      54            0   -127907.28   -107.03931   -206.69813   -4.6671702   -109.75264   -10.320011    -1.717534     -4.73707    172.79143    183.25755    9.9760189    315893.97 
      55            0   -127907.28    106.26701    33.975266    156.42284    128.40292   -9.8907887   -1.7126876   -4.7397062    172.78279    183.25421    9.9755335    315857.04 
      56            0   -127907.29    143.69779    268.09402   -37.221016    200.22037    20.020313    -1.711793   -4.7381164    172.76669    183.26974     9.975413    315850.56 
      57            0   -127907.29   -149.41781    28.167892   -347.65355   -128.76777     36.46064   -1.7188754   -4.7333527     172.7715    183.28082    9.9761343    315901.29 
      58            0   -127907.31   -170.62762   -139.99678   -106.84218    -265.0439    30.596439   -1.7215476   -4.7334548    172.78252    183.26248    9.9766113    315904.94 
      59            0   -127907.31    63.694727    67.923104    113.62406    9.5370231    18.282972    -1.715778   -4.7372788    172.77752    183.25564    9.9759908    315864.37 
      60            0   -127907.31    76.868807    48.005942   -7.3825367    189.98302   -18.628521   -1.7119197   -4.7403294    172.78116    183.26495    9.9752025     315862.1 
      61            0   -127907.31   -121.73128    -159.7818   -209.85993    4.4479058   -22.684993   -1.7157888   -4.7382333    172.78826    183.27188    9.9755008    315896.47 
      62            0   -127907.32   -137.96189   -155.99287   -31.618382   -226.27441    20.503377   -1.7208921   -4.7347402     172.7853    183.25829    9.9764991    315899.25 
      63            0   -127907.33     106.8343    114.07078    167.15473    39.277394      21.3045   -1.7154729   -4.7377386     172.7758    183.25344    9.9759733    315856.88 
      64            0   -127907.33    186.32075    254.38941    7.9653057    296.60754   -0.2617584   -1.7103214   -4.7405482    172.77017    183.26811    9.9750655    315843.12 
      65            0   -127907.34   -138.21564   -77.167042     -396.582    59.102122   -17.512267   -1.7153326   -4.7380009    172.78173     183.2848    9.9752636     315899.3 
      66            0   -127907.35   -216.96095   -293.82523   -186.81433   -170.24328   -15.187201   -1.7200474   -4.7367994    172.79355    183.26646    9.9760085    315912.89 
      67            0   -127907.36    76.817592     21.64369    128.74691     80.06218   -3.2384426   -1.7149563   -4.7395084    172.78221    183.25504    9.9756789    315862.02 
      68            0   -127907.36    162.07356     286.8798    108.55485    90.786029    43.663557   -1.7153231   -4.7371443    172.76492    183.25985    9.9759493    315847.26 
      69            0   -127907.37   -136.04323    56.138189   -237.41968   -226.84822    59.697642   -1.7222128   -4.7323622    172.76893    183.27331    9.9766142    315898.85 
      70            0   -127907.38   -262.01115   -233.01516   -276.19466   -276.82363    15.653846   -1.7230601   -4.7342174    172.78622    183.27119    9.9764195    315920.64 
      71            0   -127907.39    109.76805     74.76186    130.49413    124.04815    -1.554227   -1.7146184   -4.7400922    172.77969     183.2562    9.9755794    315856.27 
      72            0    -127907.4    448.10036    300.45297     508.8481    535.00002    -35.76823   -1.7061137   -4.7469774    172.77837    183.24197    9.9745811    315797.72 
      73            0   -127907.45    244.68004    -32.03345    334.79411    431.27947   -77.865435   -1.7086656   -4.7480435    172.79566    183.24662    9.9744388    315832.84 
      74            0   -127907.46   -66.267989   -208.88631   -28.827898    38.910244   -38.077936   -1.7172098   -4.7412756    172.79438    183.26086     9.975437    315886.64 
      75            0   -127907.46    29.083337    40.032728    15.480231    31.737053    9.0814552   -1.7178034   -4.7389362    172.77856    183.26138    9.9758005    315870.13 
      76            0   -127907.46    -63.15056   -14.123015   -68.511642   -106.81702    24.645107   -1.7208219   -4.7366353    172.77811    183.26387    9.9761951    315886.09 
      77            0   -127907.47    114.56631    271.78957    279.67883   -207.76945    95.993635   -1.7236146   -4.7334973    172.76163    183.24553    9.9771726     315855.3 
      78            0   -127907.54   -259.44132   -158.55545   -165.63111   -454.13741    62.068618   -1.7296001   -4.7320263    172.77892    183.26321    9.9772534    315919.95 
      79            0   -127907.55   -10.226112    40.724863    17.678068   -89.081268    31.492421   -1.7220012   -4.7375414    172.77595    183.25965    9.9762551    315876.78 
      80            0   -127907.55    28.833666    13.741887    7.6284101    65.130701   -1.9002435   -1.7185857   -4.7405721    172.78086    183.26191    9.9756354    315870.02 
      81            0   -127907.56   -98.462956   -150.89959   -110.78529   -33.703996   -13.998936   -1.7205704   -4.7399271    172.78803    183.26553    9.9757207    315892.06 
      82            0   -127907.58   -51.487441   -282.60659    166.80523   -38.660969   -37.380031   -1.7206938   -4.7423374    172.79991    183.24719    9.9757747    315883.89 
      83            0   -127907.59    76.696934    16.503521    123.86304    89.724244   -5.9301661   -1.7185713   -4.7417239    172.78262    183.25533    9.9756283    315861.68 
      84            0   -127907.59   -61.522344   -60.356456   -70.808435   -53.402142    6.3053164    -1.721731   -4.7391482    172.78219    183.26406    9.9759335    315885.61 
      85            0   -127907.59   -77.397637     70.09874   -203.04988   -99.241767    38.785693   -1.7231205    -4.736614     172.7711    183.27305    9.9761716    315888.35 
      86            0    -127907.6    202.04052    381.42144       91.897    132.80312    53.375136   -1.7184834   -4.7390036    172.75939    183.26256    9.9758908    315839.98 
      87            0   -127907.62    204.06111    189.98686    345.41189    76.784583     28.41951   -1.7195402   -4.7409161    172.77377    183.24422    9.9760463    315839.59 
      88            0   -127907.62   -93.128131   -108.31857   -22.718739   -148.34709    14.968522   -1.7242481   -4.7383283    172.78388    183.25932     9.976265    315891.02 
      89            0   -127907.63   -85.032309   -70.834048   -200.84963    16.586749   -8.4987384   -1.7208723   -4.7403441    172.78275    183.27258    9.9755645    315889.63 
      90            0   -127907.63    108.31461    116.05367    1.3491167    207.54105   -9.2834555   -1.7169062   -4.7427908    172.77712    183.26546    9.9752199    315856.16 
      91            0   -127907.64    96.756546    50.050989    247.54907   -7.3304203    18.141539   -1.7214349   -4.7404738    172.77989    183.24712    9.9761211    315858.14 
      92            0   -127907.64   -156.87934   -169.64122   -50.668841   -250.32797    22.470733   -1.7266578   -4.7370811    172.78536    183.25885     9.976553    315902.04 
      93            0   -127907.65   -175.46119   -89.261269    -313.0052   -124.11711     14.03536   -1.7243569   -4.7377225    172.77958    183.27719    9.9759905    315905.25 
      94            0   -127907.65    106.61866    161.29948   -3.1777733    161.73428    7.4934509   -1.7183502    -4.741688    172.77315    183.26572    9.9754438    315856.41 
      95            0   -127907.66     144.0811    53.976282    269.45419    108.81283   -2.5492057   -1.7192118   -4.7427945    172.78237    183.24738    9.9757046    315849.92 
      96            0   -127907.66   -105.69203   -200.32335    37.257383   -154.01011   -0.9365805    -1.724747   -4.7396066    172.79049    183.25446    9.9762154    315893.15 
      97            0   -127907.67   -160.16753   -99.762667   -244.45175   -136.28817    14.342089   -1.7248529   -4.7379956    172.78084     183.2728    9.9760717    315902.57 
      98            0   -127907.67    89.180281    158.57404    -7.358006    116.32481    15.362281   -1.7196342   -4.7410163     172.7723    183.26533    9.9756077     315859.4 
      99            0   -127907.67    195.46593    129.60962    302.38371    154.40447    2.9840453   -1.7186397   -4.7431797    172.77881      183.247    9.9756491       315841 
     100            0   -127907.68   -133.61225   -259.95459    52.623931   -193.50611   -4.6413015   -1.7258737   -4.7396943    172.79372    183.25224    9.9763013    315897.95 
Loop time of 7.19084 on 1 procs for 100 steps with 28800 atoms

98.2% CPU use with 1 MPI tasks x no OpenMP threads

Minimization stats:
  Stopping criterion = max iterations
  Energy initial, next-to-last, final = 
     -127905.703821041  -127907.673812668  -127907.680074545
  Force two-norm initial, final = 1239.4458 66.264901
  Force max component initial, final = 721.52724 51.285549
  Final line search alpha, max atom move = 2.3427038e-06 0.00012014685
  Iterations, force evaluations = 100 147

MPI task timing breakdown:
Section |  min time  |  avg time  |  max time  |%varavg| %total
---------------------------------------------------------------
Pair    | 6.8333     | 6.8333     | 6.8333     |   0.0 | 95.03
Neigh   | 0          | 0          | 0          |   0.0 |  0.00
Comm    | 0.034748   | 0.034748   | 0.034748   |   0.0 |  0.48
Output  | 0.10748    | 0.10748    | 0.10748    |   0.0 |  1.49
Modify  | 0          | 0          | 0          |   0.0 |  0.00
Other   |            | 0.2153     |            |       |  2.99

Nlocal:        28800.0 ave       28800 max       28800 min
Histogram: 1 0 0 0 0 0 0 0 0 0
Nghost:        55590.0 ave       55590 max       55590 min
Histogram: 1 0 0 0 0 0 0 0 0 0
Neighs:    2.53440e+06 ave  2.5344e+06 max  2.5344e+06 min
Histogram: 1 0 0 0 0 0 0 0 0 0

Total # of neighbors = 2534400
Ave neighs/atom = 88.000000
Neighbor list builds = 0
Dangerous builds = 0

variable tmp equal pxx
variable pxx0 equal ${tmp}
variable pxx0 equal -259.954587662812
variable tmp equal pyy
variable pyy0 equal ${tmp}
variable pyy0 equal 52.623931142059
variable tmp equal pzz
variable pzz0 equal ${tmp}
variable pzz0 equal -193.506107272378
variable tmp equal pyz
variable pyz0 equal ${tmp}
variable pyz0 equal -4.73969428604858
variable tmp equal pxz
variable pxz0 equal ${tmp}
variable pxz0 equal -1.72587366058115
variable tmp equal pxy
variable pxy0 equal ${tmp}
variable pxy0 equal -4.64130152825851

variable tmp equal lx
variable lx0 equal ${tmp}
variable lx0 equal 172.793717906977
variable tmp equal ly
variable ly0 equal ${tmp}
variable ly0 equal 183.252242560925
variable tmp equal lz
variable lz0 equal ${tmp}
variable lz0 equal 9.9763012775467

# These formulas define the derivatives w.r.t. strain components
# Constants uses $, variables use v_
variable d1 equal -(v_pxx1-${pxx0})/(v_delta/v_len0)*${cfac}
variable d1 equal -(v_pxx1--259.954587662812)/(v_delta/v_len0)*${cfac}
variable d1 equal -(v_pxx1--259.954587662812)/(v_delta/v_len0)*0.0001
variable d2 equal -(v_pyy1-${pyy0})/(v_delta/v_len0)*${cfac}
variable d2 equal -(v_pyy1-52.623931142059)/(v_delta/v_len0)*${cfac}
variable d2 equal -(v_pyy1-52.623931142059)/(v_delta/v_len0)*0.0001
variable d3 equal -(v_pzz1-${pzz0})/(v_delta/v_len0)*${cfac}
variable d3 equal -(v_pzz1--193.506107272378)/(v_delta/v_len0)*${cfac}
variable d3 equal -(v_pzz1--193.506107272378)/(v_delta/v_len0)*0.0001
variable d4 equal -(v_pyz1-${pyz0})/(v_delta/v_len0)*${cfac}
variable d4 equal -(v_pyz1--4.73969428604858)/(v_delta/v_len0)*${cfac}
variable d4 equal -(v_pyz1--4.73969428604858)/(v_delta/v_len0)*0.0001
variable d5 equal -(v_pxz1-${pxz0})/(v_delta/v_len0)*${cfac}
variable d5 equal -(v_pxz1--1.72587366058115)/(v_delta/v_len0)*${cfac}
variable d5 equal -(v_pxz1--1.72587366058115)/(v_delta/v_len0)*0.0001
variable d6 equal -(v_pxy1-${pxy0})/(v_delta/v_len0)*${cfac}
variable d6 equal -(v_pxy1--4.64130152825851)/(v_delta/v_len0)*${cfac}
variable d6 equal -(v_pxy1--4.64130152825851)/(v_delta/v_len0)*0.0001

displace_atoms all random ${atomjiggle} ${atomjiggle} ${atomjiggle} 87287 units box
displace_atoms all random 1e-05 ${atomjiggle} ${atomjiggle} 87287 units box
displace_atoms all random 1e-05 1e-05 ${atomjiggle} 87287 units box
displace_atoms all random 1e-05 1e-05 1e-05 87287 units box
Displacing atoms ...

# Write restart
unfix 3
write_restart restart.equil
System init for write_restart ...

# uxx Perturbation

variable dir equal 1
include displace.mod
# NOTE: This script should not need to be
# modified. See in.elastic for more info.
#
# Find which reference length to use

if "${dir} == 1" then    "variable len0 equal ${lx0}"
variable len0 equal ${lx0}
variable len0 equal 172.793717906977
if "${dir} == 2" then    "variable len0 equal ${ly0}"
if "${dir} == 3" then    "variable len0 equal ${lz0}"
if "${dir} == 4" then    "variable len0 equal ${lz0}"
if "${dir} == 5" then    "variable len0 equal ${lz0}"
if "${dir} == 6" then    "variable len0 equal ${ly0}"

# Reset box and simulation parameters

clear
box tilt large
read_restart restart.equil
Reading restart file ...
  restart file = 27 Oct 2021, LAMMPS = 27 Oct 2021
  restoring atom style atomic from restart
  triclinic box = (0.051953753 0.066691255 0.0029738899) to (172.84567 183.31893 9.9792752) with tilt (0.0000000 0.0000000 0.0000000)
  1 by 1 by 1 MPI processor grid
  pair style eam/alloy stores no restart info
  28800 atoms
  read_restart CPU = 0.007 seconds
include potential.mod
# NOTE: This script can be modified for different pair styles
# See in.elastic for more info.

# Choose potential
#pair_style	sw
#pair_coeff * * Si.sw Si
pair_style	eam/alloy
pair_coeff	* * NiCo-lammps-2014.alloy Ni Co

# Setup neighbor style
neighbor 1.0 nsq
neigh_modify once no every 1 delay 0 check yes

# Setup minimization style
min_style	     cg
min_modify	     dmax ${dmax} line quadratic
min_modify	     dmax 0.01 line quadratic

# Setup output
thermo		1
thermo_style custom step temp pe press pxx pyy pzz pxy pxz pyz lx ly lz vol
thermo_modify norm no

# Negative deformation

variable delta equal -${up}*${len0}
variable delta equal -1e-06*${len0}
variable delta equal -1e-06*172.793717906977
variable deltaxy equal -${up}*xy
variable deltaxy equal -1e-06*xy
variable deltaxz equal -${up}*xz
variable deltaxz equal -1e-06*xz
variable deltayz equal -${up}*yz
variable deltayz equal -1e-06*yz
if "${dir} == 1" then    "change_box all x delta 0 ${delta} xy delta ${deltaxy} xz delta ${deltaxz} remap units box"
change_box all x delta 0 ${delta} xy delta ${deltaxy} xz delta ${deltaxz} remap units box
change_box all x delta 0 -0.000172793717906977 xy delta ${deltaxy} xz delta ${deltaxz} remap units box
change_box all x delta 0 -0.000172793717906977 xy delta -0 xz delta ${deltaxz} remap units box
change_box all x delta 0 -0.000172793717906977 xy delta -0 xz delta -0 remap units box
Changing box ...
  triclinic box = (0.051953753 0.066691255 0.0029738899) to (172.84550 183.31893 9.9792752) with tilt (0.0000000 0.0000000 0.0000000)
  triclinic box = (0.051953753 0.066691255 0.0029738899) to (172.84550 183.31893 9.9792752) with tilt (0.0000000 0.0000000 0.0000000)
  triclinic box = (0.051953753 0.066691255 0.0029738899) to (172.84550 183.31893 9.9792752) with tilt (0.0000000 0.0000000 0.0000000)
if "${dir} == 2" then    "change_box all y delta 0 ${delta} yz delta ${deltayz} remap units box"
if "${dir} == 3" then    "change_box all z delta 0 ${delta} remap units box"
if "${dir} == 4" then    "change_box all yz delta ${delta} remap units box"
if "${dir} == 5" then    "change_box all xz delta ${delta} remap units box"
if "${dir} == 6" then    "change_box all xy delta ${delta} remap units box"

# Relax atoms positions

minimize ${etol} ${ftol} ${maxiter} ${maxeval}
minimize 0 ${ftol} ${maxiter} ${maxeval}
minimize 0 1e-10 ${maxiter} ${maxeval}
minimize 0 1e-10 100 ${maxeval}
minimize 0 1e-10 100 1000
Neighbor list info ...
  update every 1 steps, delay 0 steps, check yes
  max neighbors/atom: 2000, page size: 100000
  master list distance cutoff = 7.5
  ghost atom cutoff = 7.5
  1 neighbor lists, perpetual/occasional/extra = 1 0 0
  (1) pair eam/alloy, perpetual
      attributes: half, newton on
      pair build: half/nsq/newton
      stencil: none
      bin: none
Per MPI rank memory allocation (min/avg/max) = 36.13 | 36.13 | 36.13 Mbytes
Step Temp PotEng Press Pxx Pyy Pzz Pxy Pxz Pyz Lx Ly Lz Volume 
     100            0   -127907.68    -131.7883    -256.7104     53.60705   -192.26156   -4.2730326   -1.7271392   -4.7381438    172.79355    183.25224    9.9763013    315897.63 
     101            0   -127913.75   -184.37737    -307.2765    4.7397914   -250.59542   -1.8143794   -1.8722577   -4.7779815    172.79355    183.25224    9.9763013    315897.63 
     102            0   -127916.48   -178.65752   -297.34831    13.668152    -252.2924   -3.2947708   -1.8902388   -4.5022299    172.79355    183.25224    9.9763013    315897.63 
     103            0   -127916.82   -155.37039     -274.173    36.530624   -228.46881   -4.3062212   -1.5919939   -4.4359309    172.79355    183.25224    9.9763013    315897.63 
     104            0   -127916.87   -161.08213   -280.67351    30.375031   -232.94791   -3.1424507     -1.53143    -4.564137    172.79355    183.25224    9.9763013    315897.63 
     105            0   -127916.88   -162.09246   -282.14214    28.905199   -233.04045   -2.9690389   -1.4674913   -4.5096909    172.79355    183.25224    9.9763013    315897.63 
     106            0   -127916.89   -161.77167   -281.88957    29.351442   -232.77689   -2.7560385   -1.4424952   -4.4465498    172.79355    183.25224    9.9763013    315897.63 
     107            0    -127916.9   -163.03188   -282.84133    28.255006   -234.50932   -3.0263059   -1.5167501   -4.4145137    172.79355    183.25224    9.9763013    315897.63 
     108            0    -127916.9   -162.60193   -282.38919    28.736495   -234.15309    -2.881464   -1.5031606   -4.4513631    172.79355    183.25224    9.9763013    315897.63 
     109            0   -127916.91   -162.28183   -282.36238    29.076894      -233.56   -2.5253103   -1.4779098   -4.5003225    172.79355    183.25224    9.9763013    315897.63 
     110            0   -127916.91   -162.87846   -282.97823    28.396355   -234.05351   -2.5693885   -1.4866913   -4.5133143    172.79355    183.25224    9.9763013    315897.63 
     111            0   -127916.91   -162.57384    -282.5794    28.688879     -233.831   -2.7505323   -1.5071594   -4.4635747    172.79355    183.25224    9.9763013    315897.63 
     112            0   -127916.91   -162.06193   -282.10536    29.228634   -233.30906   -2.7128697   -1.5021821   -4.4122744    172.79355    183.25224    9.9763013    315897.63 
     113            0   -127916.91   -162.07307    -282.1266     29.24168   -233.33429   -2.5839512   -1.4800024   -4.4404425    172.79355    183.25224    9.9763013    315897.63 
     114            0   -127916.92   -162.19048   -282.31249    29.065685   -233.32463   -2.5078932    -1.459034   -4.4712177    172.79355    183.25224    9.9763013    315897.63 
     115            0   -127916.92   -162.11226   -282.30646    29.147822   -233.17813   -2.3894025   -1.4719076    -4.470569    172.79355    183.25224    9.9763013    315897.63 
     116            0   -127916.92      -161.99    -282.1692     29.33785   -233.13865   -2.3747048   -1.4766474   -4.4495382    172.79355    183.25224    9.9763013    315897.63 
     117            0   -127916.92   -162.10941   -282.28382    29.206991   -233.25141   -2.4239785   -1.4846759   -4.4588279    172.79355    183.25224    9.9763013    315897.63 
     118            0   -127916.92   -162.15862   -282.32498    29.137212    -233.2881   -2.4100563   -1.4798157   -4.4673743    172.79355    183.25224    9.9763013    315897.63 
     119            0   -127916.92    -162.0685     -282.239    29.223567   -233.19007    -2.407219   -1.4724307   -4.4783704    172.79355    183.25224    9.9763013    315897.63 
     120            0   -127916.92   -162.05085    -282.2173    29.249208   -233.18446   -2.3777035   -1.4672923   -4.4622997    172.79355    183.25224    9.9763013    315897.63 
     121            0   -127916.92   -162.06532   -282.25099    29.288922   -233.23387   -2.2846996   -1.4580976   -4.4629966    172.79355    183.25224    9.9763013    315897.63 
     122            0   -127916.92   -162.12072   -282.33907    29.212028   -233.23513   -2.2279132   -1.4549785   -4.4778125    172.79355    183.25224    9.9763013    315897.63 
     123            0   -127916.92   -162.08283   -282.32519    29.225743   -233.14903   -2.2254723   -1.4602946   -4.4858837    172.79355    183.25224    9.9763013    315897.63 
     124            0   -127916.92    -162.0459   -282.26178    29.261211   -233.13712   -2.2656783   -1.4572758   -4.4893891    172.79355    183.25224    9.9763013    315897.63 
     125            0   -127916.93   -162.01217   -282.22282     29.31162    -233.1253   -2.2664405   -1.4421092   -4.5056527    172.79355    183.25224    9.9763013    315897.63 
     126            0   -127916.93   -162.04559   -282.28037    29.279839   -233.13622   -2.2246494   -1.4395974   -4.4957888    172.79355    183.25224    9.9763013    315897.63 
     127            0   -127916.93   -162.08323   -282.32477     29.23652   -233.16143   -2.2139387   -1.4434063   -4.4857943    172.79355    183.25224    9.9763013    315897.63 
     128            0   -127916.93   -162.00977   -282.24893    29.329663   -233.11005   -2.2297113   -1.4390707   -4.4882957    172.79355    183.25224    9.9763013    315897.63 
     129            0   -127916.93   -161.98171   -282.22849    29.363581   -233.08021   -2.2333715   -1.4472632   -4.4914343    172.79355    183.25224    9.9763013    315897.63 
     130            0   -127916.93   -162.04211   -282.31783    29.286016    -233.0945   -2.1981469   -1.4496383   -4.5029533    172.79355    183.25224    9.9763013    315897.63 
     131            0   -127916.93   -162.09219   -282.39055    29.235416   -233.12144   -2.1747882   -1.4489937   -4.4989589    172.79355    183.25224    9.9763013    315897.63 
     132            0   -127916.93   -162.08009   -282.36233    29.265029   -233.14297   -2.1774339   -1.4506769   -4.4824853    172.79355    183.25224    9.9763013    315897.63 
     133            0   -127916.93   -162.06259   -282.34527     29.29249     -233.135   -2.1954539   -1.4443559   -4.4911492    172.79355    183.25224    9.9763013    315897.63 
     134            0   -127916.93   -162.11522   -282.40591    29.221598   -233.16134   -2.2088723   -1.4355987   -4.4976308    172.79355    183.25224    9.9763013    315897.63 
     135            0   -127916.93   -162.11089   -282.40943    29.222793   -233.14604   -2.1926065   -1.4385042   -4.4945416    172.79355    183.25224    9.9763013    315897.63 
     136            0   -127916.93   -162.07523   -282.39512    29.265995   -233.09658   -2.1741903   -1.4475567   -4.4929161    172.79355    183.25224    9.9763013    315897.63 
     137            0   -127916.93   -162.04351   -282.36487    29.291616   -233.05729   -2.1574756   -1.4526729   -4.4962046    172.79355    183.25224    9.9763013    315897.63 
     138            0   -127916.93   -162.02148   -282.33568    29.304547    -233.0333   -2.1563609   -1.4527745    -4.499384    172.79355    183.25224    9.9763013    315897.63 
     139            0   -127916.93   -162.00046   -282.31283    29.326122   -233.01468   -2.1682851   -1.4458699   -4.4977569    172.79355    183.25224    9.9763013    315897.63 
     140            0   -127916.93   -161.96963   -282.27533    29.355341   -232.98891   -2.1774379   -1.4429411   -4.4924585    172.79355    183.25224    9.9763013    315897.63 
     141            0   -127916.93   -161.94662   -282.24673    29.374183   -232.96732    -2.173949   -1.4446727   -4.4951997    172.79355    183.25224    9.9763013    315897.63 
     142            0   -127916.93   -161.93969   -282.24568    29.381448   -232.95483   -2.1627677   -1.4455959   -4.4940271    172.79355    183.25224    9.9763013    315897.63 
     143            0   -127916.93   -161.94524    -282.2561    29.372279   -232.95189   -2.1577003   -1.4456962   -4.4969631    172.79355    183.25224    9.9763013    315897.63 
     144            0   -127916.93   -161.93767   -282.25339     29.37811   -232.93772   -2.1571733   -1.4491053   -4.4997601    172.79355    183.25224    9.9763013    315897.63 
     145            0   -127916.93    -161.9124   -282.22336    29.400584   -232.91443    -2.161245   -1.4508119   -4.4976391    172.79355    183.25224    9.9763013    315897.63 
     146            0   -127916.93   -161.91083   -282.22448    29.404868   -232.91289   -2.1612279    -1.449925   -4.4912992    172.79355    183.25224    9.9763013    315897.63 
     147            0   -127916.93   -161.91827   -282.23431    29.393698   -232.91419   -2.1537995   -1.4481205   -4.4909283    172.79355    183.25224    9.9763013    315897.63 
     148            0   -127916.93   -161.91357    -282.2302     29.39589   -232.90639   -2.1550598   -1.4468811   -4.4950221    172.79355    183.25224    9.9763013    315897.63 
     149            0   -127916.93   -161.90313   -282.21849    29.406039   -232.89694   -2.1583535   -1.4499219   -4.4982031    172.79355    183.25224    9.9763013    315897.63 
     150            0   -127916.93   -161.90521    -282.2194    29.399565   -232.89579   -2.1571894   -1.4520333   -4.4950735    172.79355    183.25224    9.9763013    315897.63 
     151            0   -127916.93   -161.90545   -282.22733     29.40208   -232.89109   -2.1544241   -1.4510475   -4.4926173    172.79355    183.25224    9.9763013    315897.63 
     152            0   -127916.93   -161.90569   -282.22736    29.401177    -232.8909   -2.1511648   -1.4481965   -4.4931359    172.79355    183.25224    9.9763013    315897.63 
     153            0   -127916.93   -161.90444   -282.22255    29.400562   -232.89134   -2.1492612   -1.4485229   -4.4967301    172.79355    183.25224    9.9763013    315897.63 
     154            0   -127916.93   -161.90261   -282.22053    29.399976   -232.88728   -2.1501384   -1.4505634    -4.498617    172.79355    183.25224    9.9763013    315897.63 
     155            0   -127916.93   -161.90278   -282.22302    29.400476   -232.88581   -2.1521067   -1.4528173   -4.4970065    172.79355    183.25224    9.9763013    315897.63 
     156            0   -127916.93   -161.90708     -282.228    29.398664   -232.89191   -2.1514201   -1.4512062   -4.4943264    172.79355    183.25224    9.9763013    315897.63 
     157            0   -127916.93   -161.90258   -282.22113    29.402825   -232.88944   -2.1484831   -1.4478622   -4.4957781    172.79355    183.25224    9.9763013    315897.63 
     158            0   -127916.93   -161.89652   -282.21332    29.404769   -232.88102   -2.1493255   -1.4495286   -4.4980759    172.79355    183.25224    9.9763013    315897.63 
     159            0   -127916.93    -161.8989   -282.21463    29.401612   -232.88368   -2.1471476   -1.4520629   -4.4973472    172.79355    183.25224    9.9763013    315897.63 
     160            0   -127916.93   -161.89913   -282.21642     29.40471   -232.88567   -2.1463754   -1.4512595   -4.4985828    172.79355    183.25224    9.9763013    315897.63 
     161            0   -127916.93   -161.89101   -282.20677    29.414807   -232.88106   -2.1471882   -1.4519938   -4.4992637    172.79355    183.25224    9.9763013    315897.63 
     162            0   -127916.93    -161.8863   -282.20066    29.416058   -232.87429   -2.1483342   -1.4506269   -4.4991732    172.79355    183.25224    9.9763013    315897.63 
     163            0   -127916.93   -161.89145   -282.20548    29.407424    -232.8763    -2.148573   -1.4518576    -4.498034    172.79355    183.25224    9.9763013    315897.63 
     164            0   -127916.93   -161.89429   -282.20797    29.405524   -232.88044   -2.1486042   -1.4524873   -4.4970693    172.79355    183.25224    9.9763013    315897.63 
     165            0   -127916.93   -161.89254   -282.20457    29.406445    -232.8795   -2.1470775    -1.452779   -4.4976025    172.79355    183.25224    9.9763013    315897.63 
     166            0   -127916.93   -161.89411   -282.20666    29.403272   -232.87895   -2.1466367   -1.4518698    -4.499001    172.79355    183.25224    9.9763013    315897.63 
     167            0   -127916.93    -161.8965   -282.20909     29.40024   -232.88064   -2.1459585   -1.4511306   -4.5003937    172.79355    183.25224    9.9763013    315897.63 
     168            0   -127916.93   -161.89637   -282.20946    29.401435   -232.88109   -2.1448041    -1.452273   -4.4997576    172.79355    183.25224    9.9763013    315897.63 
     169            0   -127916.93    -161.8953   -282.20789    29.401932   -232.87995   -2.1439586    -1.452449   -4.4991369    172.79355    183.25224    9.9763013    315897.63 
     170            0   -127916.93   -161.89264   -282.20421    29.402885   -232.87661   -2.1459684   -1.4516278   -4.4986674    172.79355    183.25224    9.9763013    315897.63 
     171            0   -127916.93   -161.89072   -282.20292    29.405914   -232.87516   -2.1461706   -1.4519991   -4.4982873    172.79355    183.25224    9.9763013    315897.63 
     172            0   -127916.93   -161.89122   -282.20495    29.405778    -232.8745   -2.1461844   -1.4516257   -4.4987468    172.79355    183.25224    9.9763013    315897.63 
     173            0   -127916.93   -161.89072   -282.20503    29.405843   -232.87297   -2.1454447   -1.4515507   -4.5008082    172.79355    183.25224    9.9763013    315897.63 
     174            0   -127916.93   -161.88838   -282.20276    29.408472   -232.87085   -2.1438138   -1.4515412   -4.5009989    172.79355    183.25224    9.9763013    315897.63 
     175            0   -127916.93   -161.88736   -282.20202    29.409846    -232.8699   -2.1431365   -1.4516719   -4.4996198    172.79355    183.25224    9.9763013    315897.63 
     176            0   -127916.93   -161.88921   -282.20335    29.406279   -232.87056    -2.143428   -1.4531462   -4.4986694    172.79355    183.25224    9.9763013    315897.63 
     177            0   -127916.93   -161.88933    -282.2025    29.406101   -232.87159   -2.1434732   -1.4534766   -4.4990696    172.79355    183.25224    9.9763013    315897.63 
     178            0   -127916.93    -161.8877   -282.19958      29.4074   -232.87093   -2.1447766   -1.4531834   -4.4996921    172.79355    183.25224    9.9763013    315897.63 
     179            0   -127916.93   -161.88885   -282.20042    29.405996   -232.87213   -2.1454913   -1.4527831   -4.4998756    172.79355    183.25224    9.9763013    315897.63 
     180            0   -127916.93   -161.89111   -282.20302    29.403594   -232.87389   -2.1442814   -1.4526151   -4.4995586    172.79355    183.25224    9.9763013    315897.63 
     181            0   -127916.93   -161.89111   -282.20361    29.403832   -232.87355   -2.1435276   -1.4531765   -4.4998345    172.79355    183.25224    9.9763013    315897.63 
     182            0   -127916.93   -161.89153   -282.20395    29.402864    -232.8735   -2.1435806   -1.4536019   -4.4995971    172.79355    183.25224    9.9763013    315897.63 
     183            0   -127916.93   -161.89214   -282.20442    29.402702   -232.87471   -2.1437297   -1.4534451   -4.4995339    172.79355    183.25224    9.9763013    315897.63 
     184            0   -127916.93   -161.89257   -282.20459    29.402363   -232.87548    -2.144853    -1.452954   -4.4995789    172.79355    183.25224    9.9763013    315897.63 
     185            0   -127916.93   -161.89244   -282.20388    29.402029   -232.87548   -2.1452116   -1.4528793   -4.4997697    172.79355    183.25224    9.9763013    315897.63 
     186            0   -127916.93   -161.89305   -282.20421    29.401433   -232.87638   -2.1445253   -1.4527323   -4.4995769    172.79355    183.25224    9.9763013    315897.63 
     187            0   -127916.93    -161.8918   -282.20322    29.402749   -232.87492   -2.1428169   -1.4532854   -4.4994892    172.79355    183.25224    9.9763013    315897.63 
     188            0   -127916.93     -161.892   -282.20422    29.402198   -232.87399   -2.1416793   -1.4535858   -4.4995584    172.79355    183.25224    9.9763013    315897.63 
     189            0   -127916.93   -161.89139   -282.20382    29.402772   -232.87311   -2.1412446   -1.4533277    -4.500127    172.79355    183.25224    9.9763013    315897.63 
     190            0   -127916.93   -161.89062    -282.2025    29.403458   -232.87281   -2.1412191   -1.4534666   -4.5001442    172.79355    183.25224    9.9763013    315897.63 
     191            0   -127916.93   -161.88886   -282.20075     29.40506   -232.87088   -2.1415979   -1.4535789   -4.5001725    172.79355    183.25224    9.9763013    315897.63 
     192            0   -127916.93   -161.88953   -282.20195    29.404386   -232.87101   -2.1409653   -1.4536605   -4.5002267    172.79355    183.25224    9.9763013    315897.63 
     193            0   -127916.93   -161.89037   -282.20292    29.403475   -232.87165   -2.1396816   -1.4532131   -4.5004811    172.79355    183.25224    9.9763013    315897.63 
     194            0   -127916.93   -161.89098   -282.20297    29.402515   -232.87248   -2.1385796   -1.4527309   -4.5008163    172.79355    183.25224    9.9763013    315897.63 
     195            0   -127916.93   -161.89114   -282.20439    29.403338   -232.87238   -2.1394652   -1.4531403   -4.5011843    172.79355    183.25224    9.9763013    315897.63 
     196            0   -127916.93   -161.89166   -282.20442    29.402199   -232.87276   -2.1393762   -1.4534752   -4.5017853    172.79355    183.25224    9.9763013    315897.63 
     197            0   -127916.93   -161.89181   -282.20544    29.402621   -232.87261   -2.1389424   -1.4538313   -4.5017501    172.79355    183.25224    9.9763013    315897.63 
     198            0   -127916.93   -161.89111   -282.20443    29.403313   -232.87221   -2.1386895   -1.4536727   -4.5011261    172.79355    183.25224    9.9763013    315897.63 
     199            0   -127916.93   -161.89095   -282.20321    29.403296   -232.87292   -2.1384613   -1.4531692   -4.5010652    172.79355    183.25224    9.9763013    315897.63 
     200            0   -127916.93   -161.89106   -282.20336    29.403102   -232.87293    -2.138442   -1.4531499   -4.5018379    172.79355    183.25224    9.9763013    315897.63 
Loop time of 9.61295 on 1 procs for 100 steps with 28800 atoms

99.0% CPU use with 1 MPI tasks x no OpenMP threads

Minimization stats:
  Stopping criterion = max iterations
  Energy initial, next-to-last, final = 
     -127907.679978581  -127916.928979221   -127916.92897996
  Force two-norm initial, final = 13.986354 0.0031075725
  Force max component initial, final = 0.23902599 0.00020057907
  Final line search alpha, max atom move = 1.0000000 0.00020057907
  Iterations, force evaluations = 100 198

MPI task timing breakdown:
Section |  min time  |  avg time  |  max time  |%varavg| %total
---------------------------------------------------------------
Pair    | 9.3592     | 9.3592     | 9.3592     |   0.0 | 97.36
Neigh   | 0          | 0          | 0          |   0.0 |  0.00
Comm    | 0.049604   | 0.049604   | 0.049604   |   0.0 |  0.52
Output  | 0.10919    | 0.10919    | 0.10919    |   0.0 |  1.14
Modify  | 0          | 0          | 0          |   0.0 |  0.00
Other   |            | 0.09497    |            |       |  0.99

Nlocal:        28800.0 ave       28800 max       28800 min
Histogram: 1 0 0 0 0 0 0 0 0 0
Nghost:        55590.0 ave       55590 max       55590 min
Histogram: 1 0 0 0 0 0 0 0 0 0
Neighs:    2.53440e+06 ave  2.5344e+06 max  2.5344e+06 min
Histogram: 1 0 0 0 0 0 0 0 0 0

Total # of neighbors = 2534400
Ave neighs/atom = 88.000000
Neighbor list builds = 0
Dangerous builds = 0

# Obtain new stress tensor

variable tmp equal pxx
variable pxx1 equal ${tmp}
variable pxx1 equal -282.203363147219
variable tmp equal pyy
variable pyy1 equal ${tmp}
variable pyy1 equal 29.4031018615218
variable tmp equal pzz
variable pzz1 equal ${tmp}
variable pzz1 equal -232.872926234733
variable tmp equal pxy
variable pxy1 equal ${tmp}
variable pxy1 equal -2.13844200105677
variable tmp equal pxz
variable pxz1 equal ${tmp}
variable pxz1 equal -1.45314991749664
variable tmp equal pyz
variable pyz1 equal ${tmp}
variable pyz1 equal -4.50183785562489

# Compute elastic constant from pressure tensor

variable C1neg equal ${d1}
variable C1neg equal -2224.8775484407
variable C2neg equal ${d2}
variable C2neg equal -2322.08292805372
variable C3neg equal ${d3}
variable C3neg equal -3936.6818962355
variable C4neg equal ${d4}
variable C4neg equal 23.7856430423689
variable C5neg equal ${d5}
variable C5neg equal 27.272374308451
variable C6neg equal ${d6}
variable C6neg equal 250.285952720174

# Reset box and simulation parameters

clear
box tilt large
read_restart restart.equil
Reading restart file ...
  restart file = 27 Oct 2021, LAMMPS = 27 Oct 2021
  restoring atom style atomic from restart
  triclinic box = (0.051953753 0.066691255 0.0029738899) to (172.84567 183.31893 9.9792752) with tilt (0.0000000 0.0000000 0.0000000)
  1 by 1 by 1 MPI processor grid
  pair style eam/alloy stores no restart info
  28800 atoms
  read_restart CPU = 0.002 seconds
include potential.mod
# NOTE: This script can be modified for different pair styles
# See in.elastic for more info.

# Choose potential
#pair_style	sw
#pair_coeff * * Si.sw Si
pair_style	eam/alloy
pair_coeff	* * NiCo-lammps-2014.alloy Ni Co

# Setup neighbor style
neighbor 1.0 nsq
neigh_modify once no every 1 delay 0 check yes

# Setup minimization style
min_style	     cg
min_modify	     dmax ${dmax} line quadratic
min_modify	     dmax 0.01 line quadratic

# Setup output
thermo		1
thermo_style custom step temp pe press pxx pyy pzz pxy pxz pyz lx ly lz vol
thermo_modify norm no

# Positive deformation

variable delta equal ${up}*${len0}
variable delta equal 1e-06*${len0}
variable delta equal 1e-06*172.793717906977
variable deltaxy equal ${up}*xy
variable deltaxy equal 1e-06*xy
variable deltaxz equal ${up}*xz
variable deltaxz equal 1e-06*xz
variable deltayz equal ${up}*yz
variable deltayz equal 1e-06*yz
if "${dir} == 1" then    "change_box all x delta 0 ${delta} xy delta ${deltaxy} xz delta ${deltaxz} remap units box"
change_box all x delta 0 ${delta} xy delta ${deltaxy} xz delta ${deltaxz} remap units box
change_box all x delta 0 0.000172793717906977 xy delta ${deltaxy} xz delta ${deltaxz} remap units box
change_box all x delta 0 0.000172793717906977 xy delta 0 xz delta ${deltaxz} remap units box
change_box all x delta 0 0.000172793717906977 xy delta 0 xz delta 0 remap units box
Changing box ...
  triclinic box = (0.051953753 0.066691255 0.0029738899) to (172.84584 183.31893 9.9792752) with tilt (0.0000000 0.0000000 0.0000000)
  triclinic box = (0.051953753 0.066691255 0.0029738899) to (172.84584 183.31893 9.9792752) with tilt (0.0000000 0.0000000 0.0000000)
  triclinic box = (0.051953753 0.066691255 0.0029738899) to (172.84584 183.31893 9.9792752) with tilt (0.0000000 0.0000000 0.0000000)
if "${dir} == 2" then    "change_box all y delta 0 ${delta} yz delta ${deltayz} remap units box"
if "${dir} == 3" then    "change_box all z delta 0 ${delta} remap units box"
if "${dir} == 4" then    "change_box all yz delta ${delta} remap units box"
if "${dir} == 5" then    "change_box all xz delta ${delta} remap units box"
if "${dir} == 6" then    "change_box all xy delta ${delta} remap units box"

# Relax atoms positions

minimize ${etol} ${ftol} ${maxiter} ${maxeval}
minimize 0 ${ftol} ${maxiter} ${maxeval}
minimize 0 1e-10 ${maxiter} ${maxeval}
minimize 0 1e-10 100 ${maxeval}
minimize 0 1e-10 100 1000
Neighbor list info ...
  update every 1 steps, delay 0 steps, check yes
  max neighbors/atom: 2000, page size: 100000
  master list distance cutoff = 7.5
  ghost atom cutoff = 7.5
  1 neighbor lists, perpetual/occasional/extra = 1 0 0
  (1) pair eam/alloy, perpetual
      attributes: half, newton on
      pair build: half/nsq/newton
      stencil: none
      bin: none
Per MPI rank memory allocation (min/avg/max) = 36.13 | 36.13 | 36.13 Mbytes
Step Temp PotEng Press Pxx Pyy Pzz Pxy Pxz Pyz Lx Ly Lz Volume 
     100            0   -127907.68   -135.43601   -263.19718     51.63882   -194.74967   -5.0092973   -1.7271837   -4.7381531    172.79389    183.25224    9.9763013    315898.26 
     101            0   -127913.75   -188.02149   -313.75577    2.7726914   -253.08138    -2.549112   -1.8723321   -4.7779881    172.79389    183.25224    9.9763013    315898.26 
     102            0   -127916.48   -182.29823     -303.821    11.702439   -254.77613    -4.028312   -1.8903533   -4.5022324    172.79389    183.25224    9.9763013    315898.26 
     103            0   -127916.82   -159.01121   -280.64539     34.56456   -230.95279   -5.0395328   -1.5921184   -4.4359347    172.79389    183.25224    9.9763013    315898.26 
     104            0   -127916.87   -164.72243   -287.14464    28.409042   -235.43168   -3.8755844   -1.5315612   -4.5641333    172.79389    183.25224    9.9763013    315898.26 
     105            0   -127916.88   -165.73255   -288.61305    26.939458   -235.52407   -3.7022486   -1.4676248   -4.5096831    172.79389    183.25224    9.9763013    315898.26 
     106            0   -127916.89   -165.41189    -288.3606    27.385591   -235.26065   -3.4892727   -1.4426273   -4.4465425    172.79389    183.25224    9.9763013    315898.26 
     107            0    -127916.9   -166.67202   -289.31223    26.289196   -236.99302   -3.7595413   -1.5168805   -4.4145101    172.79389    183.25224    9.9763013    315898.26 
     108            0    -127916.9   -166.24198   -288.86001     26.77075   -236.63669   -3.6146785   -1.5032936   -4.4513621    172.79389    183.25224    9.9763013    315898.26 
     109            0   -127916.91   -165.92187   -288.83321    27.111185    -236.0436    -3.258512   -1.4780424   -4.5003193    172.79389    183.25224    9.9763013    315898.26 
     110            0   -127916.91    -166.5186   -289.44917    26.430559   -236.53718   -3.3025875   -1.4868267   -4.5133106    172.79389    183.25224    9.9763013    315898.26 
     111            0   -127916.91   -166.21397   -289.05032    26.723086   -236.31467   -3.4837329   -1.5072941   -4.4635717    172.79389    183.25224    9.9763013    315898.26 
     112            0   -127916.91   -165.70206   -288.57626     27.26283   -235.79274   -3.4460599   -1.5023187   -4.4122726    172.79389    183.25224    9.9763013    315898.26 
     113            0   -127916.91   -165.71324   -288.59754     27.27582   -235.81801   -3.3171504   -1.4801381   -4.4404439    172.79389    183.25224    9.9763013    315898.26 
     114            0   -127916.92   -165.83065   -288.78343    27.099846   -235.80835   -3.2410965   -1.4591715   -4.4712174    172.79389    183.25224    9.9763013    315898.26 
     115            0   -127916.92   -165.75242    -288.7774    27.181983   -235.66184   -3.1226076   -1.4720448   -4.4705677    172.79389    183.25224    9.9763013    315898.26 
     116            0   -127916.92   -165.63017   -288.64013    27.372006   -235.62238   -3.1079077   -1.4767833   -4.4495357    172.79389    183.25224    9.9763013    315898.26 
     117            0   -127916.92   -165.74957   -288.75474    27.241152   -235.73513   -3.1571769   -1.4848124   -4.4588273    172.79389    183.25224    9.9763013    315898.26 
     118            0   -127916.92   -165.79878   -288.79591     27.17137   -235.77182   -3.1432527    -1.479954   -4.4673746    172.79389    183.25224    9.9763013    315898.26 
     119            0   -127916.92   -165.70867   -288.70994    27.257731   -235.67379   -3.1404136   -1.4725663   -4.4783698    172.79389    183.25224    9.9763013    315898.26 
     120            0   -127916.92   -165.69103   -288.68825    27.283351    -235.6682   -3.1109011   -1.4674293   -4.4622985    172.79389    183.25224    9.9763013    315898.26 
     121            0   -127916.92   -165.70548   -288.72191    27.323067    -235.7176   -3.0178985   -1.4582351    -4.462995    172.79389    183.25224    9.9763013    315898.26 
     122            0   -127916.92   -165.76089   -288.80999     27.24617   -235.71885   -2.9611159   -1.4551153   -4.4778117    172.79389    183.25224    9.9763013    315898.26 
     123            0   -127916.92   -165.72301   -288.79614    27.259873   -235.63277   -2.9586727   -1.4604309    -4.485882    172.79389    183.25224    9.9763013    315898.26 
     124            0   -127916.92   -165.68607   -288.73271    27.295354   -235.62085   -2.9988781    -1.457411   -4.4893884    172.79389    183.25224    9.9763013    315898.26 
     125            0   -127916.93   -165.65234   -288.69374    27.345761   -235.60903   -2.9996364   -1.4422457   -4.5056516    172.79389    183.25224    9.9763013    315898.26 
     126            0   -127916.93   -165.68576    -288.7513    27.313979   -235.61995   -2.9578451   -1.4397349   -4.4957866    172.79389    183.25224    9.9763013    315898.26 
     127            0   -127916.93   -165.72341    -288.7957    27.270648   -235.64517   -2.9471357   -1.4435436   -4.4857937    172.79389    183.25224    9.9763013    315898.26 
     128            0   -127916.93   -165.64994   -288.71985    27.363799   -235.59378   -2.9629118   -1.4392089   -4.4882942    172.79389    183.25224    9.9763013    315898.26 
     129            0   -127916.93   -165.62188   -288.69941    27.397717   -235.56395   -2.9665707   -1.4473998   -4.4914331    172.79389    183.25224    9.9763013    315898.26 
     130            0   -127916.93   -165.68228   -288.78876    27.320146   -235.57824   -2.9313473   -1.4497759   -4.5029508    172.79389    183.25224    9.9763013    315898.26 
     131            0   -127916.93   -165.73236   -288.86147    27.269554   -235.60517   -2.9079838   -1.4491298    -4.498957    172.79389    183.25224    9.9763013    315898.26 
     132            0   -127916.93   -165.72027   -288.83326    27.299157    -235.6267   -2.9106327   -1.4508145   -4.4824842    172.79389    183.25224    9.9763013    315898.26 
     133            0   -127916.93   -165.70277   -288.81618    27.326624   -235.61874   -2.9286478    -1.444493   -4.4911462    172.79389    183.25224    9.9763013    315898.26 
     134            0   -127916.93   -165.75538   -288.87683    27.255738   -235.64507    -2.942072    -1.435738     -4.49763    172.79389    183.25224    9.9763013    315898.26 
     135            0   -127916.93   -165.75108   -288.88036     27.25691   -235.62979   -2.9258053   -1.4386402   -4.4945394    172.79389    183.25224    9.9763013    315898.26 
     136            0   -127916.93   -165.71542   -288.86604    27.300123   -235.58033   -2.9073875    -1.447695   -4.4929149    172.79389    183.25224    9.9763013    315898.26 
     137            0   -127916.93    -165.6837    -288.8358    27.325729   -235.54103   -2.8906757   -1.4528101   -4.4962019    172.79389    183.25224    9.9763013    315898.26 
     138            0   -127916.93   -165.66166   -288.80661    27.338674   -235.51705    -2.889559   -1.4529116   -4.4993823    172.79389    183.25224    9.9763013    315898.26 
     139            0   -127916.93   -165.64065   -288.78377    27.360238   -235.49842   -2.9014849   -1.4460064   -4.4977549    172.79389    183.25224    9.9763013    315898.26 
     140            0   -127916.93   -165.60982   -288.74627     27.38946   -235.47266   -2.9106336   -1.4430792   -4.4924565    172.79389    183.25224    9.9763013    315898.26 
     141            0   -127916.93   -165.58681   -288.71766    27.408302   -235.45107   -2.9071449   -1.4448106   -4.4951972    172.79389    183.25224    9.9763013    315898.26 
     142            0   -127916.93   -165.57988   -288.71662    27.415565   -235.43858   -2.8959644   -1.4457338    -4.494025    172.79389    183.25224    9.9763013    315898.26 
     143            0   -127916.93   -165.58543   -288.72703    27.406397   -235.43564    -2.890899   -1.4458327   -4.4969613    172.79389    183.25224    9.9763013    315898.26 
     144            0   -127916.93   -165.57786   -288.72432    27.412228   -235.42147   -2.8903717   -1.4492424   -4.4997581    172.79389    183.25224    9.9763013    315898.26 
     145            0   -127916.93   -165.55259   -288.69429    27.434706   -235.39818   -2.8944435   -1.4509494   -4.4976361    172.79389    183.25224    9.9763013    315898.26 
     146            0   -127916.93   -165.55102   -288.69541    27.438986   -235.39664   -2.8944247   -1.4500636   -4.4912962    172.79389    183.25224    9.9763013    315898.26 
     147            0   -127916.93   -165.55845   -288.70524    27.427817   -235.39793   -2.8869972   -1.4482581   -4.4909259    172.79389    183.25224    9.9763013    315898.26 
     148            0   -127916.93   -165.55375   -288.70113    27.430009   -235.39014   -2.8882569   -1.4470191   -4.4950202    172.79389    183.25224    9.9763013    315898.26 
     149            0   -127916.93   -165.54332   -288.68943    27.440157   -235.38069   -2.8915521   -1.4500591   -4.4982011    172.79389    183.25224    9.9763013    315898.26 
     150            0   -127916.93   -165.54539   -288.69033    27.433682   -235.37954   -2.8903871   -1.4521714   -4.4950707    172.79389    183.25224    9.9763013    315898.26 
     151            0   -127916.93   -165.54563   -288.69827    27.436199   -235.37483   -2.8876225   -1.4511851    -4.492615    172.79389    183.25224    9.9763013    315898.26 
     152            0   -127916.93   -165.54588   -288.69829    27.435292   -235.37464   -2.8843615   -1.4483347   -4.4931337    172.79389    183.25224    9.9763013    315898.26 
     153            0   -127916.93   -165.54463   -288.69349     27.43468   -235.37509   -2.8824589   -1.4486605    -4.496728    172.79389    183.25224    9.9763013    315898.26 
     154            0   -127916.93    -165.5428   -288.69147    27.434094   -235.37103   -2.8833364   -1.4507009   -4.4986145    172.79389    183.25224    9.9763013    315898.26 
     155            0   -127916.93   -165.54297   -288.69395    27.434596   -235.36955   -2.8853049   -1.4529548    -4.497004    172.79389    183.25224    9.9763013    315898.26 
     156            0   -127916.93   -165.54727   -288.69894    27.432781   -235.37566   -2.8846178   -1.4513439    -4.494324    172.79389    183.25224    9.9763013    315898.26 
     157            0   -127916.93   -165.54277   -288.69206    27.436945   -235.37318   -2.8816804   -1.4480002   -4.4957766    172.79389    183.25224    9.9763013    315898.26 
     158            0   -127916.93   -165.53671   -288.68425    27.438888   -235.36476   -2.8825236   -1.4496665    -4.498073    172.79389    183.25224    9.9763013    315898.26 
     159            0   -127916.93   -165.53909   -288.68557    27.435732   -235.36743    -2.880345   -1.4522006   -4.4973448    172.79389    183.25224    9.9763013    315898.26 
     160            0   -127916.93   -165.53931   -288.68736    27.438829   -235.36942    -2.879574   -1.4513968   -4.4985801    172.79389    183.25224    9.9763013    315898.26 
     161            0   -127916.93   -165.53119    -288.6777    27.448926   -235.36481   -2.8803856   -1.4521318   -4.4992621    172.79389    183.25224    9.9763013    315898.26 
     162            0   -127916.93   -165.52648   -288.67159    27.450178   -235.35803   -2.8815318    -1.450765   -4.4991705    172.79389    183.25224    9.9763013    315898.26 
     163            0   -127916.93   -165.53164   -288.67641    27.441544   -235.36005   -2.8817701    -1.451995   -4.4980323    172.79389    183.25224    9.9763013    315898.26 
     164            0   -127916.93   -165.53448    -288.6789    27.439641   -235.36419   -2.8818029   -1.4526252   -4.4970663    172.79389    183.25224    9.9763013    315898.26 
     165            0   -127916.93   -165.53273   -288.67551    27.440564   -235.36325   -2.8802755   -1.4529163   -4.4976006    172.79389    183.25224    9.9763013    315898.26 
     166            0   -127916.93    -165.5343   -288.67759     27.43739    -235.3627   -2.8798346   -1.4520083    -4.498998    172.79389    183.25224    9.9763013    315898.26 
     167            0   -127916.93   -165.53668   -288.68002     27.43436   -235.36439   -2.8791567   -1.4512679   -4.5003918    172.79389    183.25224    9.9763013    315898.26 
     168            0   -127916.93   -165.53656   -288.68039    27.435552   -235.36483   -2.8780025   -1.4524107   -4.4997553    172.79389    183.25224    9.9763013    315898.26 
     169            0   -127916.93   -165.53549   -288.67882     27.43605   -235.36369   -2.8771565   -1.4525868   -4.4991349    172.79389    183.25224    9.9763013    315898.26 
     170            0   -127916.93   -165.53283   -288.67514    27.437002   -235.36036    -2.879166   -1.4517658   -4.4986649    172.79389    183.25224    9.9763013    315898.26 
     171            0   -127916.93   -165.53091   -288.67385    27.440033   -235.35891   -2.8793693   -1.4521364   -4.4982851    172.79389    183.25224    9.9763013    315898.26 
     172            0   -127916.93   -165.53141   -288.67588    27.439896   -235.35825   -2.8793819   -1.4517638   -4.4987446    172.79389    183.25224    9.9763013    315898.26 
     173            0   -127916.93   -165.53091   -288.67597    27.439961   -235.35672   -2.8786433   -1.4516879   -4.5008061    172.79389    183.25224    9.9763013    315898.26 
     174            0   -127916.93   -165.52857   -288.67369     27.44259    -235.3546   -2.8770114   -1.4516791   -4.5009966    172.79389    183.25224    9.9763013    315898.26 
     175            0   -127916.93   -165.52754   -288.67295    27.443965   -235.35365   -2.8763346   -1.4518092   -4.4996174    172.79389    183.25224    9.9763013    315898.26 
     176            0   -127916.93    -165.5294   -288.67428    27.440398   -235.35431   -2.8766257    -1.453284    -4.498667    172.79389    183.25224    9.9763013    315898.26 
     177            0   -127916.93   -165.52951   -288.67343    27.440219   -235.35533   -2.8766718   -1.4536141   -4.4990674    172.79389    183.25224    9.9763013    315898.26 
     178            0   -127916.93   -165.52789   -288.67051    27.441518   -235.35467   -2.8779746   -1.4533212   -4.4996901    172.79389    183.25224    9.9763013    315898.26 
     179            0   -127916.93   -165.52904   -288.67135    27.440114   -235.35588   -2.8786893   -1.4529208   -4.4998733    172.79389    183.25224    9.9763013    315898.26 
     180            0   -127916.93   -165.53129   -288.67395    27.437712   -235.35764   -2.8774792   -1.4527527   -4.4995564    172.79389    183.25224    9.9763013    315898.26 
     181            0   -127916.93    -165.5313   -288.67454     27.43795    -235.3573   -2.8767255   -1.4533141   -4.4998322    172.79389    183.25224    9.9763013    315898.26 
     182            0   -127916.93   -165.53172   -288.67488    27.436983   -235.35725   -2.8767788   -1.4537397   -4.4995948    172.79389    183.25224    9.9763013    315898.26 
     183            0   -127916.93   -165.53233   -288.67535    27.436821   -235.35846    -2.876928   -1.4535827   -4.4995315    172.79389    183.25224    9.9763013    315898.26 
     184            0   -127916.93   -165.53276   -288.67552    27.436482   -235.35923   -2.8780513   -1.4530917   -4.4995767    172.79389    183.25224    9.9763013    315898.26 
     185            0   -127916.93   -165.53263   -288.67481    27.436147   -235.35922   -2.8784095    -1.453017   -4.4997676    172.79389    183.25224    9.9763013    315898.26 
     186            0   -127916.93   -165.53324   -288.67514    27.435552   -235.36013   -2.8777233     -1.45287   -4.4995745    172.79389    183.25224    9.9763013    315898.26 
     187            0   -127916.93   -165.53198   -288.67415    27.436867   -235.35867   -2.8760148   -1.4534232   -4.4994868    172.79389    183.25224    9.9763013    315898.26 
     188            0   -127916.93   -165.53219   -288.67515    27.436316   -235.35774   -2.8748777   -1.4537235    -4.499556    172.79389    183.25224    9.9763013    315898.26 
     189            0   -127916.93   -165.53157   -288.67476     27.43689   -235.35685   -2.8744427   -1.4534655   -4.5001248    172.79389    183.25224    9.9763013    315898.26 
     190            0   -127916.93    -165.5308   -288.67343    27.437576   -235.35656   -2.8744172   -1.4536045    -4.500142    172.79389    183.25224    9.9763013    315898.26 
     191            0   -127916.93   -165.52904   -288.67168    27.439178   -235.35463   -2.8747959   -1.4537166   -4.5001704    172.79389    183.25224    9.9763013    315898.26 
     192            0   -127916.93   -165.52971   -288.67288    27.438504   -235.35476   -2.8741635   -1.4537982   -4.5002242    172.79389    183.25224    9.9763013    315898.26 
     193            0   -127916.93   -165.53055   -288.67385    27.437593    -235.3554   -2.8728796   -1.4533509   -4.5004787    172.79389    183.25224    9.9763013    315898.26 
     194            0   -127916.93   -165.53117   -288.67391    27.436632   -235.35623   -2.8717779   -1.4528688    -4.500814    172.79389    183.25224    9.9763013    315898.26 
     195            0   -127916.93   -165.53133   -288.67532    27.437456   -235.35613   -2.8726633   -1.4532781   -4.5011822    172.79389    183.25224    9.9763013    315898.26 
     196            0   -127916.93   -165.53185   -288.67535    27.436316    -235.3565   -2.8725744   -1.4536129   -4.5017828    172.79389    183.25224    9.9763013    315898.26 
     197            0   -127916.93     -165.532   -288.67637    27.436739   -235.35636   -2.8721404   -1.4539693   -4.5017477    172.79389    183.25224    9.9763013    315898.26 
     198            0   -127916.93   -165.53129   -288.67536    27.437431   -235.35595   -2.8718877   -1.4538104   -4.5011237    172.79389    183.25224    9.9763013    315898.26 
     199            0   -127916.93   -165.53113   -288.67414    27.437414   -235.35667   -2.8716595   -1.4533072   -4.5010631    172.79389    183.25224    9.9763013    315898.26 
     200            0   -127916.93   -165.53125   -288.67429     27.43722   -235.35667   -2.8716404   -1.4532877   -4.5018356    172.79389    183.25224    9.9763013    315898.26 
Loop time of 9.82952 on 1 procs for 100 steps with 28800 atoms

97.9% CPU use with 1 MPI tasks x no OpenMP threads

Minimization stats:
  Stopping criterion = max iterations
  Energy initial, next-to-last, final = 
     -127907.679876069  -127916.928866669  -127916.928867389
  Force two-norm initial, final = 13.986296 0.0031075197
  Force max component initial, final = 0.23902305 0.00020057144
  Final line search alpha, max atom move = 1.0000000 0.00020057144
  Iterations, force evaluations = 100 198

MPI task timing breakdown:
Section |  min time  |  avg time  |  max time  |%varavg| %total
---------------------------------------------------------------
Pair    | 9.5739     | 9.5739     | 9.5739     |   0.0 | 97.40
Neigh   | 0          | 0          | 0          |   0.0 |  0.00
Comm    | 0.052134   | 0.052134   | 0.052134   |   0.0 |  0.53
Output  | 0.10332    | 0.10332    | 0.10332    |   0.0 |  1.05
Modify  | 0          | 0          | 0          |   0.0 |  0.00
Other   |            | 0.1002     |            |       |  1.02

Nlocal:        28800.0 ave       28800 max       28800 min
Histogram: 1 0 0 0 0 0 0 0 0 0
Nghost:        55590.0 ave       55590 max       55590 min
Histogram: 1 0 0 0 0 0 0 0 0 0
Neighs:    2.53440e+06 ave  2.5344e+06 max  2.5344e+06 min
Histogram: 1 0 0 0 0 0 0 0 0 0

Total # of neighbors = 2534400
Ave neighs/atom = 88.000000
Neighbor list builds = 0
Dangerous builds = 0

# Obtain new stress tensor

variable tmp equal pe
variable e1 equal ${tmp}
variable e1 equal -127916.928867389
variable tmp equal press
variable p1 equal ${tmp}
variable p1 equal -165.531248388861
variable tmp equal pxx
variable pxx1 equal ${tmp}
variable pxx1 equal -288.674293715662
variable tmp equal pyy
variable pyy1 equal ${tmp}
variable pyy1 equal 27.4372202822481
variable tmp equal pzz
variable pzz1 equal ${tmp}
variable pzz1 equal -235.356671733169
variable tmp equal pxy
variable pxy1 equal ${tmp}
variable pxy1 equal -2.87164035895766
variable tmp equal pxz
variable pxz1 equal ${tmp}
variable pxz1 equal -1.45328768880582
variable tmp equal pyz
variable pyz1 equal ${tmp}
variable pyz1 equal -4.50183555881199

# Compute elastic constant from pressure tensor

variable C1pos equal ${d1}
variable C1pos equal 2871.970605285
variable C2pos equal ${d2}
variable C2pos equal 2518.67108598109
variable C3pos equal ${d3}
variable C3pos equal 4185.0564460791
variable C4pos equal ${d4}
variable C4pos equal -23.7858727236589
variable C5pos equal ${d5}
variable C5pos equal -27.258597177533
variable C6pos equal ${d6}
variable C6pos equal -176.966116930085

# Combine positive and negative

variable C1${dir} equal 0.5*(${C1neg}+${C1pos})
variable C11 equal 0.5*(${C1neg}+${C1pos})
variable C11 equal 0.5*(-2224.8775484407+${C1pos})
variable C11 equal 0.5*(-2224.8775484407+2871.970605285)
variable C2${dir} equal 0.5*(${C2neg}+${C2pos})
variable C21 equal 0.5*(${C2neg}+${C2pos})
variable C21 equal 0.5*(-2322.08292805372+${C2pos})
variable C21 equal 0.5*(-2322.08292805372+2518.67108598109)
variable C3${dir} equal 0.5*(${C3neg}+${C3pos})
variable C31 equal 0.5*(${C3neg}+${C3pos})
variable C31 equal 0.5*(-3936.6818962355+${C3pos})
variable C31 equal 0.5*(-3936.6818962355+4185.0564460791)
variable C4${dir} equal 0.5*(${C4neg}+${C4pos})
variable C41 equal 0.5*(${C4neg}+${C4pos})
variable C41 equal 0.5*(23.7856430423689+${C4pos})
variable C41 equal 0.5*(23.7856430423689+-23.7858727236589)
variable C5${dir} equal 0.5*(${C5neg}+${C5pos})
variable C51 equal 0.5*(${C5neg}+${C5pos})
variable C51 equal 0.5*(27.272374308451+${C5pos})
variable C51 equal 0.5*(27.272374308451+-27.258597177533)
variable C6${dir} equal 0.5*(${C6neg}+${C6pos})
variable C61 equal 0.5*(${C6neg}+${C6pos})
variable C61 equal 0.5*(250.285952720174+${C6pos})
variable C61 equal 0.5*(250.285952720174+-176.966116930085)

# Delete dir to make sure it is not reused

variable dir delete

# uyy Perturbation

variable dir equal 2
include displace.mod
# NOTE: This script should not need to be
# modified. See in.elastic for more info.
#
# Find which reference length to use

if "${dir} == 1" then    "variable len0 equal ${lx0}"
if "${dir} == 2" then    "variable len0 equal ${ly0}"
variable len0 equal ${ly0}
variable len0 equal 183.252242560925
if "${dir} == 3" then    "variable len0 equal ${lz0}"
if "${dir} == 4" then    "variable len0 equal ${lz0}"
if "${dir} == 5" then    "variable len0 equal ${lz0}"
if "${dir} == 6" then    "variable len0 equal ${ly0}"

# Reset box and simulation parameters

clear
box tilt large
read_restart restart.equil
Reading restart file ...
  restart file = 27 Oct 2021, LAMMPS = 27 Oct 2021
  restoring atom style atomic from restart
  triclinic box = (0.051953753 0.066691255 0.0029738899) to (172.84567 183.31893 9.9792752) with tilt (0.0000000 0.0000000 0.0000000)
  1 by 1 by 1 MPI processor grid
  pair style eam/alloy stores no restart info
  28800 atoms
  read_restart CPU = 0.002 seconds
include potential.mod
# NOTE: This script can be modified for different pair styles
# See in.elastic for more info.

# Choose potential
#pair_style	sw
#pair_coeff * * Si.sw Si
pair_style	eam/alloy
pair_coeff	* * NiCo-lammps-2014.alloy Ni Co

# Setup neighbor style
neighbor 1.0 nsq
neigh_modify once no every 1 delay 0 check yes

# Setup minimization style
min_style	     cg
min_modify	     dmax ${dmax} line quadratic
min_modify	     dmax 0.01 line quadratic

# Setup output
thermo		1
thermo_style custom step temp pe press pxx pyy pzz pxy pxz pyz lx ly lz vol
thermo_modify norm no

# Negative deformation

variable delta equal -${up}*${len0}
variable delta equal -1e-06*${len0}
variable delta equal -1e-06*183.252242560925
variable deltaxy equal -${up}*xy
variable deltaxy equal -1e-06*xy
variable deltaxz equal -${up}*xz
variable deltaxz equal -1e-06*xz
variable deltayz equal -${up}*yz
variable deltayz equal -1e-06*yz
if "${dir} == 1" then    "change_box all x delta 0 ${delta} xy delta ${deltaxy} xz delta ${deltaxz} remap units box"
if "${dir} == 2" then    "change_box all y delta 0 ${delta} yz delta ${deltayz} remap units box"
change_box all y delta 0 ${delta} yz delta ${deltayz} remap units box
change_box all y delta 0 -0.000183252242560925 yz delta ${deltayz} remap units box
change_box all y delta 0 -0.000183252242560925 yz delta -0 remap units box
Changing box ...
  triclinic box = (0.051953753 0.066691255 0.0029738899) to (172.84567 183.31875 9.9792752) with tilt (0.0000000 0.0000000 0.0000000)
  triclinic box = (0.051953753 0.066691255 0.0029738899) to (172.84567 183.31875 9.9792752) with tilt (0.0000000 0.0000000 0.0000000)
if "${dir} == 3" then    "change_box all z delta 0 ${delta} remap units box"
if "${dir} == 4" then    "change_box all yz delta ${delta} remap units box"
if "${dir} == 5" then    "change_box all xz delta ${delta} remap units box"
if "${dir} == 6" then    "change_box all xy delta ${delta} remap units box"

# Relax atoms positions

minimize ${etol} ${ftol} ${maxiter} ${maxeval}
minimize 0 ${ftol} ${maxiter} ${maxeval}
minimize 0 1e-10 ${maxiter} ${maxeval}
minimize 0 1e-10 100 ${maxeval}
minimize 0 1e-10 100 1000
Neighbor list info ...
  update every 1 steps, delay 0 steps, check yes
  max neighbors/atom: 2000, page size: 100000
[...]
     154            0   -127916.93   -163.72219   -285.82262    28.417672   -233.76161   -3.2544447   -1.4506589    -4.498607    172.79372    183.25224    9.9763013    315897.95 
     155            0   -127916.93   -163.72236    -285.8251    28.418173   -233.76014   -3.2564131    -1.452913   -4.4969966    172.79372    183.25224    9.9763013    315897.95 
     156            0   -127916.93   -163.72666   -285.83009     28.41636   -233.76624    -3.255726   -1.4513021   -4.4943165    172.79372    183.25224    9.9763013    315897.95 
     157            0   -127916.93   -163.72215   -285.82321    28.420522   -233.76377   -3.2527888   -1.4479579   -4.4957687    172.79372    183.25224    9.9763013    315897.95 
     158            0   -127916.93   -163.71609    -285.8154    28.422466   -233.75535   -3.2536315   -1.4496247   -4.4980658    172.79372    183.25224    9.9763013    315897.95 
     159            0   -127916.93   -163.71847   -285.81672    28.419309   -233.75801   -3.2514535   -1.4521585   -4.4973371    172.79372    183.25224    9.9763013    315897.95 
     160            0   -127916.93    -163.7187    -285.8185    28.422407      -233.76   -3.2506819   -1.4513551   -4.4985729    172.79372    183.25224    9.9763013    315897.95 
     161            0   -127916.93   -163.71058   -285.80885    28.432504   -233.75539   -3.2514946   -1.4520897    -4.499254    172.79372    183.25224    9.9763013    315897.95 
     162            0   -127916.93   -163.70587   -285.80274    28.433755   -233.74862     -3.25264    -1.450723   -4.4991635    172.79372    183.25224    9.9763013    315897.95 
     163            0   -127916.93   -163.71102   -285.80756    28.425121   -233.75063   -3.2528787   -1.4519536   -4.4980242    172.79372    183.25224    9.9763013    315897.95 
     164            0   -127916.93   -163.71387   -285.81005    28.423221   -233.75477   -3.2529105    -1.452583   -4.4970593    172.79372    183.25224    9.9763013    315897.95 
     165            0   -127916.93   -163.71211   -285.80666    28.424142   -233.75383   -3.2513837   -1.4528746   -4.4975928    172.79372    183.25224    9.9763013    315897.95 
     166            0   -127916.93   -163.71369   -285.80874    28.420968   -233.75328   -3.2509426   -1.4519658   -4.4989913    172.79372    183.25224    9.9763013    315897.95 
     167            0   -127916.93   -163.71607   -285.81117    28.417937   -233.75497   -3.2502647   -1.4512263   -4.5003842    172.79372    183.25224    9.9763013    315897.95 
     168            0   -127916.93   -163.71594   -285.81154    28.419131   -233.75542   -3.2491104   -1.4523689   -4.4997479    172.79372    183.25224    9.9763013    315897.95 
     169            0   -127916.93   -163.71487   -285.80997    28.419628   -233.75428   -3.2482646   -1.4525448   -4.4991272    172.79372    183.25224    9.9763013    315897.95 
     170            0   -127916.93   -163.71222   -285.80629    28.420581   -233.75094   -3.2502745   -1.4517236   -4.4986575    172.79372    183.25224    9.9763013    315897.95 
     171            0   -127916.93   -163.71029     -285.805    28.423611   -233.74949   -3.2504767   -1.4520948   -4.4982776    172.79372    183.25224    9.9763013    315897.95 
     172            0   -127916.93    -163.7108   -285.80703    28.423475   -233.74883   -3.2504903   -1.4517216   -4.4987372    172.79372    183.25224    9.9763013    315897.95 
     173            0   -127916.93   -163.71029   -285.80711    28.423539    -233.7473   -3.2497508   -1.4516464   -4.5007987    172.79372    183.25224    9.9763013    315897.95 
     174            0   -127916.93   -163.70795   -285.80484    28.426168   -233.74518   -3.2481198    -1.451637   -4.5009891    172.79372    183.25224    9.9763013    315897.95 
     175            0   -127916.93   -163.70693    -285.8041    28.427543   -233.74423   -3.2474425   -1.4517676   -4.4996101    172.79372    183.25224    9.9763013    315897.95 
     176            0   -127916.93   -163.70878   -285.80543    28.423976   -233.74489   -3.2477338   -1.4532421   -4.4986596    172.79372    183.25224    9.9763013    315897.95 
     177            0   -127916.93    -163.7089   -285.80458    28.423798   -233.74592   -3.2477794   -1.4535723   -4.4990599    172.79372    183.25224    9.9763013    315897.95 
     178            0   -127916.93   -163.70727   -285.80166    28.425097   -233.74526   -3.2490825   -1.4532792   -4.4996825    172.79372    183.25224    9.9763013    315897.95 
     179            0   -127916.93   -163.70842    -285.8025    28.423693   -233.74646   -3.2497972   -1.4528789   -4.4998659    172.79372    183.25224    9.9763013    315897.95 
     180            0   -127916.93   -163.71068    -285.8051    28.421291   -233.74822   -3.2485872   -1.4527109    -4.499549    172.79372    183.25224    9.9763013    315897.95 
     181            0   -127916.93   -163.71068   -285.80569    28.421529   -233.74788   -3.2478335   -1.4532722   -4.4998248    172.79372    183.25224    9.9763013    315897.95 
     182            0   -127916.93    -163.7111   -285.80603    28.420561   -233.74783   -3.2478866   -1.4536978   -4.4995873    172.79372    183.25224    9.9763013    315897.95 
     183            0   -127916.93   -163.71171    -285.8065    28.420399   -233.74904   -3.2480358   -1.4535407   -4.4995241    172.79372    183.25224    9.9763013    315897.95 
     184            0   -127916.93   -163.71214   -285.80667     28.42006   -233.74981   -3.2491589   -1.4530498   -4.4995693    172.79372    183.25224    9.9763013    315897.95 
     185            0   -127916.93   -163.71201   -285.80596    28.419726   -233.74981   -3.2495176   -1.4529751   -4.4997601    172.79372    183.25224    9.9763013    315897.95 
     186            0   -127916.93   -163.71262   -285.80629     28.41913   -233.75071   -3.2488312   -1.4528281   -4.4995672    172.79372    183.25224    9.9763013    315897.95 
     187            0   -127916.93   -163.71137    -285.8053    28.420446   -233.74925   -3.2471229   -1.4533812   -4.4994794    172.79372    183.25224    9.9763013    315897.95 
     188            0   -127916.93   -163.71158    -285.8063    28.419894   -233.74832   -3.2459854   -1.4536816   -4.4995486    172.79372    183.25224    9.9763013    315897.95 
     189            0   -127916.93   -163.71096   -285.80591    28.420468   -233.74744   -3.2455505   -1.4534235   -4.5001173    172.79372    183.25224    9.9763013    315897.95 
     190            0   -127916.93   -163.71019   -285.80458    28.421155   -233.74714    -3.245525   -1.4535625   -4.5001345    172.79372    183.25224    9.9763013    315897.95 
     191            0   -127916.93   -163.70843   -285.80283    28.422756   -233.74521   -3.2459038   -1.4536747    -4.500163    172.79372    183.25224    9.9763013    315897.95 
     192            0   -127916.93    -163.7091   -285.80403    28.422083   -233.74534   -3.2452713   -1.4537563    -4.500217    172.79372    183.25224    9.9763013    315897.95 
     193            0   -127916.93   -163.70994     -285.805    28.421171   -233.74598   -3.2439875    -1.453309   -4.5004714    172.79372    183.25224    9.9763013    315897.95 
     194            0   -127916.93   -163.71055   -285.80506    28.420211   -233.74681   -3.2428855   -1.4528267   -4.5008065    172.79372    183.25224    9.9763013    315897.95 
     195            0   -127916.93   -163.71072   -285.80647    28.421034   -233.74671   -3.2437708   -1.4532361   -4.5011747    172.79372    183.25224    9.9763013    315897.95 
     196            0   -127916.93   -163.71123    -285.8065    28.419895   -233.74709    -3.243682   -1.4535709   -4.5017755    172.79372    183.25224    9.9763013    315897.95 
     197            0   -127916.93   -163.71138   -285.80752    28.420318   -233.74694    -3.243248   -1.4539273   -4.5017405    172.79372    183.25224    9.9763013    315897.95 
     198            0   -127916.93   -163.71068   -285.80651     28.42101   -233.74654   -3.2429954   -1.4537685   -4.5011164    172.79372    183.25224    9.9763013    315897.95 
     199            0   -127916.93   -163.71052   -285.80529    28.420992   -233.74725   -3.2427669   -1.4532652   -4.5010556    172.79372    183.25224    9.9763013    315897.95 
     200            0   -127916.93   -163.71063   -285.80544    28.420799   -233.74726   -3.2427479   -1.4532456    -4.501828    172.79372    183.25224    9.9763013    315897.95 
Loop time of 9.77154 on 1 procs for 100 steps with 28800 atoms

97.9% CPU use with 1 MPI tasks x no OpenMP threads

Minimization stats:
  Stopping criterion = max iterations
  Energy initial, next-to-last, final = 
     -127907.679926654  -127916.928922695  -127916.928923435
  Force two-norm initial, final = 13.986326 0.0031075934
  Force max component initial, final = 0.23902486 0.00020053183
  Final line search alpha, max atom move = 1.0000000 0.00020053183
  Iterations, force evaluations = 100 198

MPI task timing breakdown:
Section |  min time  |  avg time  |  max time  |%varavg| %total
---------------------------------------------------------------
Pair    | 9.5096     | 9.5096     | 9.5096     |   0.0 | 97.32
Neigh   | 0          | 0          | 0          |   0.0 |  0.00
Comm    | 0.050085   | 0.050085   | 0.050085   |   0.0 |  0.51
Output  | 0.11022    | 0.11022    | 0.11022    |   0.0 |  1.13
Modify  | 0          | 0          | 0          |   0.0 |  0.00
Other   |            | 0.1016     |            |       |  1.04

Nlocal:        28800.0 ave       28800 max       28800 min
Histogram: 1 0 0 0 0 0 0 0 0 0
Nghost:        55590.0 ave       55590 max       55590 min
Histogram: 1 0 0 0 0 0 0 0 0 0
Neighs:    2.53440e+06 ave  2.5344e+06 max  2.5344e+06 min
Histogram: 1 0 0 0 0 0 0 0 0 0

Total # of neighbors = 2534400
Ave neighs/atom = 88.000000
Neighbor list builds = 0
Dangerous builds = 0

# Obtain new stress tensor

variable tmp equal pe
variable e1 equal ${tmp}
variable e1 equal -127916.928923435
variable tmp equal press
variable p1 equal ${tmp}
variable p1 equal -163.710634033841
variable tmp equal pxx
variable pxx1 equal ${tmp}
variable pxx1 equal -285.805444612321
variable tmp equal pyy
variable pyy1 equal ${tmp}
variable pyy1 equal 28.4207987107152
variable tmp equal pzz
variable pzz1 equal ${tmp}
variable pzz1 equal -233.747256199917
variable tmp equal pxy
variable pxy1 equal ${tmp}
variable pxy1 equal -3.2427479408019
variable tmp equal pxz
variable pxz1 equal ${tmp}
variable pxz1 equal -1.45324559670696
variable tmp equal pyz
variable pyz1 equal ${tmp}
variable pyz1 equal -4.50182801749138

# Compute elastic constant from pressure tensor

variable C1pos equal ${d1}
variable C1pos equal 2585.0856949509
variable C2pos equal ${d2}
variable C2pos equal 2420.31324313438
variable C3pos equal ${d3}
variable C3pos equal 4024.1148927539
variable C4pos equal ${d4}
variable C4pos equal -23.78662685572
variable C5pos equal ${d5}
variable C5pos equal -27.262806387419
variable C6pos equal ${d6}
variable C6pos equal -139.855358745661

# Combine positive and negative

variable C1${dir} equal 0.5*(${C1neg}+${C1pos})
variable C16 equal 0.5*(${C1neg}+${C1pos})
variable C16 equal 0.5*(-2511.7648506431+${C1pos})
variable C16 equal 0.5*(-2511.7648506431+2585.0856949509)
variable C2${dir} equal 0.5*(${C2neg}+${C2pos})
variable C26 equal 0.5*(${C2neg}+${C2pos})
variable C26 equal 0.5*(-2420.44071097374+${C2pos})
variable C26 equal 0.5*(-2420.44071097374+2420.31324313438)
variable C3${dir} equal 0.5*(${C3neg}+${C3pos})
variable C36 equal 0.5*(${C3neg}+${C3pos})
variable C36 equal 0.5*(-4097.6243608765+${C3pos})
variable C36 equal 0.5*(-4097.6243608765+4024.1148927539)
variable C4${dir} equal 0.5*(${C4neg}+${C4pos})
variable C46 equal 0.5*(${C4neg}+${C4pos})
variable C46 equal 0.5*(23.7848877974869+${C4pos})
variable C46 equal 0.5*(23.7848877974869+-23.78662685572)
variable C5${dir} equal 0.5*(${C5neg}+${C5pos})
variable C56 equal 0.5*(${C5neg}+${C5pos})
variable C56 equal 0.5*(27.268165549548+${C5pos})
variable C56 equal 0.5*(27.268165549548+-27.262806387419)
variable C6${dir} equal 0.5*(${C6neg}+${C6pos})
variable C66 equal 0.5*(${C6neg}+${C6pos})
variable C66 equal 0.5*(287.396526551641+${C6pos})
variable C66 equal 0.5*(287.396526551641+-139.855358745661)

# Delete dir to make sure it is not reused

variable dir delete

# Output final values

variable C11all equal ${C11}
variable C11all equal 323.54652842215
variable C22all equal ${C22}
variable C22all equal 349.697626716935
variable C33all equal ${C33}
variable C33all equal 323.8604362033

variable C12all equal 0.5*(${C12}+${C21})
variable C12all equal 0.5*(98.26266210585+${C21})
variable C12all equal 0.5*(98.26266210585+98.294078963685)
variable C13all equal 0.5*(${C13}+${C31})
variable C13all equal 0.5*(124.18212613135+${C31})
variable C13all equal 0.5*(124.18212613135+124.1872749218)
variable C23all equal 0.5*(${C23}+${C32})
variable C23all equal 0.5*(98.3209172939701+${C32})
variable C23all equal 0.5*(98.3209172939701+98.2946509016501)

variable C44all equal ${C44}
variable C44all equal 73.7968203522804
variable C55all equal ${C55}
variable C55all equal 99.686062987757
variable C66all equal ${C66}
variable C66all equal 73.77058390299

variable C14all equal 0.5*(${C14}+${C41})
variable C14all equal 0.5*(0.000355293600023288+${C41})
variable C14all equal 0.5*(0.000355293600023288+-0.000114840645000669)
variable C15all equal 0.5*(${C15}+${C51})
variable C15all equal 0.5*(0.0071539023999776+${C51})
variable C15all equal 0.5*(0.0071539023999776+0.00688856545899874)
variable C16all equal 0.5*(${C16}+${C61})
variable C16all equal 0.5*(36.6604221538998+${C61})
variable C16all equal 0.5*(36.6604221538998+36.6599178950445)

variable C24all equal 0.5*(${C24}+${C42})
variable C24all equal 0.5*(-0.000526276744949428+${C42})
variable C24all equal 0.5*(-0.000526276744949428+-0.00141698820005054)
variable C25all equal 0.5*(${C25}+${C52})
variable C25all equal 0.5*(0.00269349589484591+${C52})
variable C25all equal 0.5*(0.00269349589484591+0.00254331747199998)
variable C26all equal 0.5*(${C26}+${C62})
variable C26all equal 0.5*(-0.0637339196798621+${C62})
variable C26all equal 0.5*(-0.0637339196798621+-0.0637085645619919)

variable C34all equal 0.5*(${C34}+${C43})
variable C34all equal 0.5*(-0.00579113149979094+${C43})
variable C34all equal 0.5*(-0.00579113149979094+-0.0057834574319493)
variable C35all equal 0.5*(${C35}+${C53})
variable C35all equal 0.5*(0.0103807349498766+${C53})
variable C35all equal 0.5*(0.0103807349498766+0.0103937889050005)
variable C36all equal 0.5*(${C36}+${C63})
variable C36all equal 0.5*(-36.7547340612998+${C63})
variable C36all equal 0.5*(-36.7547340612998+-36.7549833351275)

variable C45all equal 0.5*(${C45}+${C54})
variable C45all equal 0.5*(-36.7256884340974+${C54})
variable C45all equal 0.5*(-36.7256884340974+-36.7257239202605)
variable C46all equal 0.5*(${C46}+${C64})
variable C46all equal 0.5*(-0.000869529116551249+${C64})
variable C46all equal 0.5*(-0.000869529116551249+-0.000681904105505282)
variable C56all equal 0.5*(${C56}+${C65})
variable C56all equal 0.5*(0.00267958106450017+${C65})
variable C56all equal 0.5*(0.00267958106450017+0.00267207336349884)

# Average moduli for cubic crystals

variable C11cubic equal (${C11all}+${C22all}+${C33all})/3.0
variable C11cubic equal (323.54652842215+${C22all}+${C33all})/3.0
variable C11cubic equal (323.54652842215+349.697626716935+${C33all})/3.0
variable C11cubic equal (323.54652842215+349.697626716935+323.8604362033)/3.0
variable C12cubic equal (${C12all}+${C13all}+${C23all})/3.0
variable C12cubic equal (98.2783705347675+${C13all}+${C23all})/3.0
variable C12cubic equal (98.2783705347675+124.184700526575+${C23all})/3.0
variable C12cubic equal (98.2783705347675+124.184700526575+98.3077840978101)/3.0
variable C44cubic equal (${C44all}+${C55all}+${C66all})/3.0
variable C44cubic equal (73.7968203522804+${C55all}+${C66all})/3.0
variable C44cubic equal (73.7968203522804+99.686062987757+${C66all})/3.0
variable C44cubic equal (73.7968203522804+99.686062987757+73.77058390299)/3.0

variable bulkmodulus equal (${C11cubic}+2*${C12cubic})/3.0
variable bulkmodulus equal (332.368197114128+2*${C12cubic})/3.0
variable bulkmodulus equal (332.368197114128+2*106.923618386384)/3.0
variable shearmodulus1 equal ${C44cubic}
variable shearmodulus1 equal 82.4178224143425
variable shearmodulus2 equal (${C11cubic}-${C12cubic})/2.0
variable shearmodulus2 equal (332.368197114128-${C12cubic})/2.0
variable shearmodulus2 equal (332.368197114128-106.923618386384)/2.0
variable poissonratio equal 1.0/(1.0+${C11cubic}/${C12cubic})
variable poissonratio equal 1.0/(1.0+332.368197114128/${C12cubic})
variable poissonratio equal 1.0/(1.0+332.368197114128/106.923618386384)

# For Stillinger-Weber silicon, the analytical results
# are known to be (E. R. Cowley, 1988):
#               C11 = 151.4 GPa
#               C12 = 76.4 GPa
#               C44 = 56.4 GPa

print "========================================="
=========================================
print "Components of the Elastic Constant Tensor"
Components of the Elastic Constant Tensor
print "========================================="
=========================================

print "Elastic Constant C11all = ${C11all} ${cunits}"
Elastic Constant C11all = 323.54652842215 GPa
print "Elastic Constant C22all = ${C22all} ${cunits}"
Elastic Constant C22all = 349.697626716935 GPa
print "Elastic Constant C33all = ${C33all} ${cunits}"
Elastic Constant C33all = 323.8604362033 GPa

print "Elastic Constant C12all = ${C12all} ${cunits}"
Elastic Constant C12all = 98.2783705347675 GPa
print "Elastic Constant C13all = ${C13all} ${cunits}"
Elastic Constant C13all = 124.184700526575 GPa
print "Elastic Constant C23all = ${C23all} ${cunits}"
Elastic Constant C23all = 98.3077840978101 GPa

print "Elastic Constant C44all = ${C44all} ${cunits}"
Elastic Constant C44all = 73.7968203522804 GPa
print "Elastic Constant C55all = ${C55all} ${cunits}"
Elastic Constant C55all = 99.686062987757 GPa
print "Elastic Constant C66all = ${C66all} ${cunits}"
Elastic Constant C66all = 73.77058390299 GPa

print "Elastic Constant C14all = ${C14all} ${cunits}"
Elastic Constant C14all = 0.00012022647751131 GPa
print "Elastic Constant C15all = ${C15all} ${cunits}"
Elastic Constant C15all = 0.00702123392948817 GPa
print "Elastic Constant C16all = ${C16all} ${cunits}"
Elastic Constant C16all = 36.6601700244722 GPa

print "Elastic Constant C24all = ${C24all} ${cunits}"
Elastic Constant C24all = -0.000971632472499984 GPa
print "Elastic Constant C25all = ${C25all} ${cunits}"
Elastic Constant C25all = 0.00261840668342295 GPa
print "Elastic Constant C26all = ${C26all} ${cunits}"
Elastic Constant C26all = -0.063721242120927 GPa

print "Elastic Constant C34all = ${C34all} ${cunits}"
Elastic Constant C34all = -0.00578729446587012 GPa
print "Elastic Constant C35all = ${C35all} ${cunits}"
Elastic Constant C35all = 0.0103872619274385 GPa
print "Elastic Constant C36all = ${C36all} ${cunits}"
Elastic Constant C36all = -36.7548586982137 GPa

print "Elastic Constant C45all = ${C45all} ${cunits}"
Elastic Constant C45all = -36.7257061771789 GPa
print "Elastic Constant C46all = ${C46all} ${cunits}"
Elastic Constant C46all = -0.000775716611028265 GPa
print "Elastic Constant C56all = ${C56all} ${cunits}"
Elastic Constant C56all = 0.00267582721399951 GPa

print "========================================="
=========================================
print "Average properties for a cubic crystal"
Average properties for a cubic crystal
print "========================================="
=========================================

print "Bulk Modulus = ${bulkmodulus} ${cunits}"
Bulk Modulus = 182.071811295632 GPa
print "Shear Modulus 1 = ${shearmodulus1} ${cunits}"
Shear Modulus 1 = 82.4178224143425 GPa
print "Shear Modulus 2 = ${shearmodulus2} ${cunits}"
Shear Modulus 2 = 112.722289363872 GPa
print "Poisson Ratio = ${poissonratio}"
Poisson Ratio = 0.243399978359623
Total wall time: 0:02:56
