LAMMPS (27 Oct 2021)
# Compute elastic constant tensor for a crystal
#
# Written by Aidan Thompson (Sandia, athomps@sandia.gov)
#
#  This script uses the following three include files.
#
#   init.mod      (must be modified for different crystal structures)
# 	       	  Define units, deformation parameters and initial
#		  configuration of the atoms and simulation cell.
#
#
#   potential.mod    (must be modified for different pair styles)
# 		     Define pair style and other attributes
#		     not stored in restart file
#
#
#   displace.mod    (displace.mod should not need to be modified)
# 		    Perform positive and negative box displacements
# 		    in direction ${dir} and size ${up}.
# 		    It uses the resultant changes
#		    in stress to compute one
# 		    row of the elastic stiffness tensor
#
#		    Inputs variables:
#		    	   dir = the Voigt deformation component
#		    		    (1,2,3,4,5,6)
#		    Global constants:
#       	    	   up = the deformation magnitude (strain units)
#       		   cfac = conversion from LAMMPS pressure units to
#               	   output units for elastic constants
#
#
#  To run this on a different system, it should only be necessary to
#  modify the files init.mod and potential.mod. In order to calculate
#  the elastic constants correctly, care must be taken to specify
#  the correct units in init.mod (units, cfac and cunits). It is also
#  important to verify that the minimization of energy w.r.t atom
#  positions in the deformed cell is fully converged.
#  One indication of this is that the elastic constants are insensitive
#  to the choice of the variable ${up} in init.mod. Another is to check
#  the final max and two-norm forces reported in the log file. If you know
#  that minimization is not required, you can set maxiter = 0.0 in
#  init.mod.
#

include init.mod
# NOTE: This script can be modified for different atomic structures,
# units, etc. See in.elastic for more info.
#

# Define the finite deformation size. Try several values of this
# variable to verify that results do not depend on it.
variable up equal 1.0e-6

# Define the amount of random jiggle for atoms
# This prevents atoms from staying on saddle points
variable atomjiggle equal 1.0e-5

# Uncomment one of these blocks, depending on what units
# you are using in LAMMPS and for output

# metal units, elastic constants in eV/A^3
#units		metal
#variable cfac equal 6.2414e-7
#variable cunits string eV/A^3

# metal units, elastic constants in GPa
units		metal
variable cfac equal 1.0e-4
variable cunits string GPa

# real units, elastic constants in GPa
#units		real
#variable cfac equal 1.01325e-4
#variable cunits string GPa

# Define minimization parameters
variable etol equal 0.0
variable ftol equal 1.0e-10
variable maxiter equal 100
variable maxeval equal 1000
variable dmax equal 1.0e-2

# generate the box and atom positions using a diamond lattice
#variable a equal 5.43
read_data Ni95-Co5/2.data
Reading data file ...
  triclinic box = (0.0000000 0.0000000 0.0000000) to (172.89763 183.38563 9.9822491) with tilt (0.0000000 0.0000000 0.0000000)
  1 by 1 by 1 MPI processor grid
  reading atoms ...
  28800 atoms
  reading velocities ...
  28800 velocities
  read_data CPU = 0.172 seconds
#boundary	p p p

#lattice         diamond $a
#region		box prism 0 2.0 0 3.0 0 4.0 0.0 0.0 0.0
#create_box	1 box
#create_atoms	1 box

# Need to set mass to something, just to satisfy LAMMPS
mass 1 1.0e-20

include potential.mod #NiCo-lammps-2014.alloy #
# NOTE: This script can be modified for different pair styles
# See in.elastic for more info.

# Choose potential
#pair_style	sw
#pair_coeff * * Si.sw Si
pair_style	eam/alloy
pair_coeff	* * NiCo-lammps-2014.alloy Ni Co

# Setup neighbor style
neighbor 1.0 nsq
neigh_modify once no every 1 delay 0 check yes

# Setup minimization style
min_style	     cg
min_modify	     dmax ${dmax} line quadratic
min_modify	     dmax 0.01 line quadratic

# Setup output
thermo		1
thermo_style custom step temp pe press pxx pyy pzz pxy pxz pyz lx ly lz vol
thermo_modify norm no

# Compute initial state
fix 3 all box/relax  aniso 0.0
minimize ${etol} ${ftol} ${maxiter} ${maxeval}
minimize 0 ${ftol} ${maxiter} ${maxeval}
minimize 0 1e-10 ${maxiter} ${maxeval}
minimize 0 1e-10 100 ${maxeval}
minimize 0 1e-10 100 1000
Neighbor list info ...
  update every 1 steps, delay 0 steps, check yes
  max neighbors/atom: 2000, page size: 100000
  master list distance cutoff = 7.5
  ghost atom cutoff = 7.5
  1 neighbor lists, perpetual/occasional/extra = 1 0 0
  (1) pair eam/alloy, perpetual
      attributes: half, newton on
      pair build: half/nsq/newton
      stencil: none
      bin: none
Per MPI rank memory allocation (min/avg/max) = 36.13 | 36.13 | 36.13 Mbytes
Step Temp PotEng Press Pxx Pyy Pzz Pxy Pxz Pyz Lx Ly Lz Volume 
       0            0    -128052.4   -10263.876   -10277.278   -10268.745   -10245.606    14.238573   0.75475605    1.2670955    172.89763    183.38563    9.9822491    316506.56 
       1            0   -128052.99   -9729.9411   -9743.1635   -9734.7335   -9711.9264    14.358178   0.75232165    1.2714717    172.88034     183.3673    9.9812539    316411.74 
       2            0   -128053.55   -9195.2981   -9208.3299   -9200.0094   -9177.5551    14.482572   0.74991402    1.2758108    172.86305    183.34898    9.9802589    316316.95 
       3            0   -128054.08   -8659.9493   -8672.7786    -8664.574   -8642.4954     14.61225    0.7475339    1.2801017    172.84576    183.33066     9.979264    316222.18 
       4            0   -128054.58   -8123.8994    -8136.513   -8128.4315   -8106.7536    14.747757   0.74518227    1.2843469    172.82847    183.31234    9.9782693    316127.43 
       5            0   -128055.04   -7587.1734   -7599.5571   -7591.6065   -7570.3565    14.889715   0.74286071      1.28855    172.81118    183.29402    9.9772747    316032.71 
       6            0   -128055.47   -7049.7821   -7061.9197   -7054.1091   -7033.3174    15.038874   0.74056662    1.2927194    172.79389     183.2757    9.9762803    315938.02 
       7            0   -128055.87   -6511.7256   -6523.5992   -6515.9386    -6495.639    15.196111   0.73829866    1.2968605     172.7766    183.25738    9.9752861    315843.36 
       8            0   -128056.24   -5972.9948    -5984.584   -5977.0848   -5957.3157     15.36251    0.7360598    1.3009695    172.75931    183.23906    9.9742922    315748.72 
       9            0   -128056.58   -5433.5893   -5444.8706   -5437.5461   -5418.3511    15.539407   0.73384743    1.3050452    172.74202    183.22075    9.9732985    315654.11 
      10            0   -128056.88    -4893.521   -4904.4675   -4897.3332   -4878.7623    15.728504   0.73166585    1.3090809    172.72473    183.20243    9.9723051    315559.54 
      11            0   -128057.16   -4352.8102   -4363.3902   -4356.4643   -4338.5762    15.931976   0.72951199    1.3130722    172.70744    183.18412    9.9713122    315464.99 
      12            0    -128057.4   -3811.4843   -3821.6595   -3814.9643   -3797.8289    16.152738   0.72738307    1.3170152    172.69015    183.16581    9.9703196    315370.49 
      13            0   -128057.61   -3269.5653    -3279.289   -3272.8521   -3256.5549    16.394844   0.72528196    1.3209089    172.67286     183.1475    9.9693276    315276.03 
      14            0   -128057.78   -2727.0838   -2736.2965   -2730.1533   -2714.8015    16.663991   0.72320694    1.3247643    172.65557     183.1292    9.9683363    315181.61 
      15            0   -128057.93    -2184.095   -2192.7182   -2186.9162   -2172.6505    16.968874   0.72116639     1.328583    172.63828     183.1109    9.9673459    315087.25 
      16            0   -128058.04   -1640.6835   -1648.6069   -1643.2137   -1630.2299    17.323779    0.7191553    1.3323717    172.62099    183.09261    9.9663569    314992.97 
      17            0   -128058.12   -1097.0165   -1104.0699   -1099.1916   -1087.7881    17.755611   0.71717308    1.3361162     172.6037    183.07434    9.9653698    314898.78 
      18            0   -128058.17   -553.48136   -559.35739   -555.18951   -545.89719     18.32578   0.71521662    1.3398099    172.58641    183.05608    9.9643863    314804.77 
      19            0   -128058.19   -11.468577   -15.368741   -12.432515   -6.6044743    19.253023   0.71328729    1.3434476    172.56912    183.03788    9.9634121    314711.16 
      20            0   -128058.19    63.731972    68.861262    65.696789    56.637864    23.252251   0.71302403    1.3440387    172.56594    183.03515    9.9633332    314698.18 
      21            0    -128058.2    18.592753     172.3083    60.009961   -176.54001    87.336341   0.71403735      1.34509    172.55417    183.03381    9.9643314    314705.94 
      22            0   -128058.21    -103.4945   -98.822244   -124.68563   -86.975631     18.64712   0.71769946     1.342096    172.57146    183.04241    9.9635315    314726.99 
      23            0   -128058.21    125.31774    71.255436    108.18139     196.5164    -2.926711   0.71810129    1.3429575    172.56928    183.03446    9.9628403    314687.51 
      24            0   -128058.21    275.12803    163.92325    275.00984    386.45101   -21.441427   0.71905067    1.3433503    172.56932    183.02822    9.9623589    314661.66 
      25            0   -128058.24    184.94273   -103.55147    277.81271    380.56695   -71.243168   0.72611669    1.3408282    172.58661    183.02452    9.9620531    314677.16 
      26            0   -128058.25   -89.433477   -225.30245   -55.158009    12.160025   -24.299761   0.72591964    1.3400556    172.58264    183.03792    9.9630513    314724.49 
      27            0   -128058.25    29.280081    40.106813    15.259243    32.474188    22.339242   0.72425791    1.3419201    172.56667    183.03743     9.963351       314704 
      28            0   -128058.25    -25.32827    20.237052   -34.667865   -61.553998    36.449139   0.72418863    1.3419197    172.56535    183.03892    9.9636444    314713.42 
      29            0   -128058.26    39.342806    8.5820577    254.18961   -144.74324    50.081462   0.72612401    1.3429122    172.56784    183.02058    9.9641449    314702.24 
      30            0   -128058.28   -89.478509    -136.8367   -69.201109   -62.397719    6.6967729   0.73052066    1.3399288    172.57512    183.03892    9.9634291    314724.43 
      31            0   -128058.29    148.14813    151.10657    105.96934    187.36848    13.971917   0.72998903    1.3414347    172.56384    183.03548     9.962969    314683.42 
      32            0   -128058.29    274.47466    327.69073    182.96279    312.77046    23.720114   0.72987437    1.3422872    172.55598    183.03481    9.9627697    314661.63 
      33            0   -128058.31    131.22022    448.78026   -148.19798    93.078364    88.547415   0.73332165    1.3417472    172.53939    183.05315    9.9635096    314686.28 
      34            0   -128058.32   -66.316308    106.68329   -191.89812    -113.7341    62.779441   0.73587525    1.3400018    172.55668    183.04866     9.963834    314720.35 
      35            0   -128058.33    60.710463    100.77593    46.683335    34.672126    33.428303   0.73662009    1.3403184    172.56313    183.03636    9.9634371    314698.43 
      36            0   -128058.33   -9.0642856   -20.247678    9.9030646   -16.848243    20.194448   0.73732976    1.3395841    172.56946    183.03631    9.9634557    314710.47 
      37            0   -128058.33    5.6640118   -27.782621   -73.271203    118.04586   -6.9044996      0.73791    1.3387167    172.57181    183.04288    9.9628819    314707.93 
      38            0   -128060.07   -440.64357   -418.08419    -526.9811   -376.86542    11.654965    1.0868141    1.2781928     172.5807    183.05782    9.9638801    314781.34 
      39            0    -128060.1    16.722087     26.77932   -27.807256    51.194198    14.853847    1.0900563    1.2806682    172.56695    183.03948    9.9631706    314702.34 
      40            0    -128060.1   -5.4677165   -61.115909     180.6645   -135.95174    33.741926    1.0913991     1.281283    172.57122    183.02357    9.9639112    314706.15 
      41            0    -128060.1   -13.659719   -88.847008    247.22105   -199.35319    40.534008    1.0919984    1.2814653    172.57248    183.01845    9.9641619    314707.57 
      42            0   -128060.18     1.656361    128.61026    189.28252   -312.92369    103.49045    1.1105221    1.2798845    172.55519     183.0232    9.9648126    314704.75 
      43            0   -128060.19  -0.80608007      67.6482    27.421477   -97.487917     50.82973     1.111962    1.2779465    172.56178    183.03478    9.9638143    314705.16 
      44            0   -128060.19    1.4848164    2.6356558   -7.5739328    9.3927262    18.113713    1.1124621    1.2769641    172.56786     183.0374    9.9633084    314704.76 
      45            0   -128060.19   -33.281812   -93.151533    37.686254   -44.380156    10.116394    1.1129402    1.2766389    172.57349    183.03279    9.9634242    314710.76 
      46            0   -128060.19    195.15569    74.980345    350.10981    160.37693    3.1398594    1.1146455     1.277802    172.57072    183.01909    9.9630817    314671.34 
      47            0   -128061.84   -15.094898   -58.603703   -12.542985    25.861994   -2.4556974    1.8316537    1.1847614     172.5722    183.03686    9.9630845    314704.68 
      48            0   -128061.84    21.419278    16.720805     21.06714     26.46989    11.753422    1.8320347    1.1854306    172.56772    183.03584    9.9631986    314698.38 
      49            0   -128061.84  0.093772776    8.4655359  -0.81301229   -7.3712053     16.61964    1.8319814    1.1854735    172.56727     183.0366    9.9633002    314702.06 
      50            0   -128061.84   -16.679781   -25.127595   -14.394541   -10.517208    10.827493    1.8319145    1.1851865    172.56922    183.03693    9.9632611    314704.95 
      51            0   -128061.84     9.394048   -15.416008    13.362072     30.23608     4.922054    1.8320908     1.185134     172.5698    183.03594    9.9631395    314700.45 
      52            0   -128061.84    101.31786    185.95657    49.878658    68.118349    35.997644     1.834054    1.1866833    172.55796    183.03686    9.9632709     314684.6 
      53            0   -128061.84   -82.394571    116.35335   -165.21021   -198.32685    73.375166    1.8360858    1.1870211    172.55419    183.04528    9.9640349    314716.34 
      54            0   -128061.87    -179.3648   -168.21616   -42.122569   -327.75569    43.595389    1.8484908    1.1863803    172.57148    183.03266    9.9642572    314733.19 
      55            0   -128061.87    114.81588    95.020864    183.06535    66.361436    18.645834    1.8528067    1.1871719    172.56551    183.02781    9.9632589    314682.44 
      56            0   -128061.88    109.33673    84.531427   -39.724988    283.20376    -24.66795    1.8572012    1.1855116    172.56812    183.04369    9.9622753    314683.42 
      57            0   -128061.88   -143.67385   -169.02794   -330.75645    68.762838   -32.151488    1.8593592    1.1839441    172.57651    183.05491    9.9625635    314727.12 
      58            0   -128061.89   -183.61886   -209.81289   -162.20284   -178.84083    7.0190018    1.8653089    1.1856944    172.57595     183.0412    9.9635617    314734.07 
      59            0    -128061.9    28.103146    14.232424     51.12681    18.950203    12.003083    1.8668572    1.1870667    172.56819      183.034    9.9632447    314697.53 
      60            0    -128061.9    54.603046    101.36075   -1.0478212     63.49621    20.090987    1.8677826    1.1874066    172.56284     183.0388     9.963148    314692.96 
      61            0    -128061.9   -49.725178    19.338747   -134.11247   -34.401807    23.095601     1.867916    1.1869223    172.56447    183.04437    9.9633211    314710.97 
      62            0    -128061.9   -119.37935   -208.49984    11.767802     -161.406      3.86308    1.8696255    1.1863392    172.57837    183.03114    9.9636202    314723.02 
      63            0    -128061.9    108.69258     -34.1429    294.19755    66.023092   -6.2954074    1.8733519    1.1874825    172.57532     183.0196    9.9631792    314683.69 
      64            0   -128061.91    177.28762     197.6592    77.151056    257.05262    1.3083139    1.8821791    1.1881353     172.5617    183.03794    9.9625948    314671.92 
      65            0   -128061.92   -97.395425   -51.861081   -200.46917   -39.856025    10.280361    1.8828176    1.1870395    172.56823    183.04735    9.9632073    314719.34 
      66            0   -128061.92   -201.52498   -205.60115   -89.341613   -309.63218    32.269196     1.885713    1.1877848    172.57384    183.03529    9.9641097    314737.36 
      67            0   -128061.93     73.45946    35.490896     292.6868   -107.79932    39.678058    1.8907753    1.1899539    172.56712    183.01838     9.963917    314689.94 
      68            0   -128061.94    173.32323    181.51514    157.85252    180.60203    12.461259    1.8975192    1.1895358    172.56215    183.03199    9.9629188    314672.76 
      69            0   -128061.94   -47.895021     -34.9413   -104.30726   -4.4365076    6.4617618    1.8976221    1.1881124     172.5691    183.04235    9.9631628    314710.94 
      70            0   -128061.94   -177.47694   -220.03993   -102.21274   -210.17816    10.329784    1.8994023    1.1879012    172.57679    183.03719    9.9637092    314733.35 
      71            0   -128061.95    18.679338    -81.45214    257.25788   -119.76773    19.385681    1.9055338    1.1898921    172.57409    183.01885    9.9637932    314699.55 
      72            0   -128061.96    197.66674    263.92513    99.505905    229.56918    18.460042    1.9157448    1.1908502    172.55719    183.03719    9.9627956    314668.74 
      73            0   -128061.96   -57.152096    63.791792   -290.97934    55.731255    13.348719    1.9200571    1.1893935    172.56176    183.05552    9.9629275    314712.77 
      74            0   -128061.97   -226.08383   -272.46967   -184.21721   -221.56463    1.9655593     1.926918    1.1890287    172.57905    183.04129    9.9636302    314742.03 
      75            0   -128061.98    64.746314    -36.49872    216.88949    13.848171    1.9734729     1.932752    1.1910948    172.57361    183.02361    9.9633186    314691.87 
      76            0   -128061.98    219.99328    286.06525      150.722    223.19258    23.334569    1.9433903    1.1929483    172.55632    183.03442    9.9628833    314665.18 
      77            0   -128061.99   -63.943076    86.454487   -252.87098   -25.412731    32.500072    1.9494089    1.1920106    172.55911    183.05258    9.9632875    314714.26 
      78            0   -128061.99    -188.4017   -217.47746   -139.72095   -208.00669    9.2254967    1.9583722    1.1915689     172.5764    183.03961     9.963679    314735.86 
      79            0      -128062    52.015217   -27.574533      159.397    24.223185    1.0886096    1.9637345    1.1929694    172.57266    183.02734    9.9632509     314694.4 
      80            0      -128062    142.08438    172.77607    66.908603    186.56847    8.1852037    1.9717237    1.1939011    172.56198    183.03752    9.9628231    314678.94 
      81            0      -128062   -36.433765    42.758177   -174.80919    22.749721    14.527744    1.9754005    1.1933688    172.56402    183.04807    9.9631084    314709.79 
      82            0      -128062   -94.988379   -106.10213   -43.405191   -135.45782    16.212035    1.9794101    1.1937446    172.57194    183.03632    9.9636119    314719.96 
      83            0   -128062.01    22.958501   -9.0500446    103.96134   -26.035787    13.826032    1.9817225    1.1944665    172.56976    183.03026    9.9634241    314699.62 
      84            0   -128062.01     47.78511    52.776352    21.488184    69.090794    7.4586514    1.9838777    1.1943285    172.56677    183.03718     9.963085    314695.35 
      85            0   -128062.01   -11.822755   -1.1571782   -50.202991    15.891904    7.3116134    1.9839932    1.1940115    172.56828    183.04005     9.963168    314705.64 
      86            0   -128062.01   -23.196903   -28.073319   -8.9331519   -32.584239     11.40591    1.9840935    1.1941994     172.5695    183.03663    9.9633459    314707.61 
      87            0   -128062.01    6.8148794       1.1348    26.372291   -7.0624528    12.104858    1.9843591     1.194403    172.56857    183.03524    9.9633109    314702.43 
      88            0   -128062.01    12.882305    18.288033    2.5193318     17.83955    10.628004    1.9846269     1.194348     172.5677     183.0372    9.9632217    314701.39 
      89            0   -128062.01   -6.4625104   -1.0291669   -20.093841    1.7354769    10.016232      1.98456    1.1942193    172.56833    183.03808    9.9632425    314704.73 
      90            0   -128062.01   -11.173722   -19.465292    1.5253791   -15.581253     9.802372    1.9844862    1.1942304    172.56943    183.03634       9.9633    314705.54 
      91            0   -128062.01    10.486325    1.6006827    26.796661    3.0616306    10.262054    1.9846454    1.1943739    172.56876    183.03535    9.9632737     314701.8 
      92            0   -128062.01    16.800015    33.779909   -6.0853418    22.705477    12.641687    1.9850104    1.1944511    172.56669    183.03797    9.9632165    314700.72 
      93            0   -128062.01    -21.38959   -1.5637405    -49.87135   -12.733681     12.65703    1.9849214    1.1942482     172.5677    183.03966    9.9632753    314707.31 
      94            0   -128062.01   -33.137099   -67.117475    14.768692   -47.062516    6.7063425    1.9850208    1.1941381    172.57202    183.03454     9.963369    314709.35 
      95            0   -128062.01    44.161518    1.7094072    100.81169    29.963453    5.1331534    1.9859125    1.1945653    172.57024    183.03132     9.963225    314696.02 
      96            0   -128062.01    60.821127    112.88096   -32.940251    102.52267    12.421776     1.988731    1.1949143    172.56294    183.04163    9.9629956    314693.18 
      97            0   -128062.01   -78.533849   -13.045487   -179.00565   -43.550411    16.213556    1.9894846    1.1944496    172.56624    183.04679    9.9632866    314717.27 
      98            0   -128062.01   -76.045587   -121.47651    46.039827   -152.70007    16.242239    1.9930273     1.195271    172.57373    183.03065     9.963722    314716.93 
      99            0   -128062.01    87.975004    37.152811     196.8177      29.9545    11.614229    1.9962509    1.1962102    172.56915    183.02613    9.9633375    314688.67 
     100            0   -128062.02    54.115211    76.883637   -32.736963    118.19896    2.2930883    2.0004548     1.195792    172.56568     183.0414     9.962894    314694.58 
Loop time of 12.1965 on 1 procs for 100 steps with 28800 atoms

98.6% CPU use with 1 MPI tasks x no OpenMP threads

Minimization stats:
  Stopping criterion = max iterations
  Energy initial, next-to-last, final = 
     -128052.399852882  -128062.014541137  -128062.017081603
  Force two-norm initial, final = 3511.9333 28.509009
  Force max component initial, final = 2030.2545 23.261379
  Final line search alpha, max atom move = 3.8363116e-06 8.9237899e-05
  Iterations, force evaluations = 100 157

MPI task timing breakdown:
Section |  min time  |  avg time  |  max time  |%varavg| %total
---------------------------------------------------------------
Pair    | 7.807      | 7.807      | 7.807      |   0.0 | 64.01
Neigh   | 4.002      | 4.002      | 4.002      |   0.0 | 32.81
Comm    | 0.041652   | 0.041652   | 0.041652   |   0.0 |  0.34
Output  | 0.10422    | 0.10422    | 0.10422    |   0.0 |  0.85
Modify  | 0          | 0          | 0          |   0.0 |  0.00
Other   |            | 0.2416     |            |       |  1.98

Nlocal:        28800.0 ave       28800 max       28800 min
Histogram: 1 0 0 0 0 0 0 0 0 0
Nghost:        55590.0 ave       55590 max       55590 min
Histogram: 1 0 0 0 0 0 0 0 0 0
Neighs:    2.53440e+06 ave  2.5344e+06 max  2.5344e+06 min
Histogram: 1 0 0 0 0 0 0 0 0 0

Total # of neighbors = 2534400
Ave neighs/atom = 88.000000
Neighbor list builds = 1
Dangerous builds = 0

variable tmp equal pxx
variable pxx0 equal ${tmp}
variable pxx0 equal 76.8836370868565
variable tmp equal pyy
variable pyy0 equal ${tmp}
variable pyy0 equal -32.7369626199561
variable tmp equal pzz
variable pzz0 equal ${tmp}
variable pzz0 equal 118.198958937988
variable tmp equal pyz
variable pyz0 equal ${tmp}
variable pyz0 equal 1.19579204389538
variable tmp equal pxz
variable pxz0 equal ${tmp}
variable pxz0 equal 2.0004548232056
variable tmp equal pxy
variable pxy0 equal ${tmp}
variable pxy0 equal 2.2930883075963

variable tmp equal lx
variable lx0 equal ${tmp}
variable lx0 equal 172.565676606809
variable tmp equal ly
variable ly0 equal ${tmp}
variable ly0 equal 183.041404874977
variable tmp equal lz
variable lz0 equal ${tmp}
variable lz0 equal 9.9628940088196

# These formulas define the derivatives w.r.t. strain components
# Constants uses $, variables use v_
variable d1 equal -(v_pxx1-${pxx0})/(v_delta/v_len0)*${cfac}
variable d1 equal -(v_pxx1-76.8836370868565)/(v_delta/v_len0)*${cfac}
variable d1 equal -(v_pxx1-76.8836370868565)/(v_delta/v_len0)*0.0001
variable d2 equal -(v_pyy1-${pyy0})/(v_delta/v_len0)*${cfac}
variable d2 equal -(v_pyy1--32.7369626199561)/(v_delta/v_len0)*${cfac}
variable d2 equal -(v_pyy1--32.7369626199561)/(v_delta/v_len0)*0.0001
variable d3 equal -(v_pzz1-${pzz0})/(v_delta/v_len0)*${cfac}
variable d3 equal -(v_pzz1-118.198958937988)/(v_delta/v_len0)*${cfac}
variable d3 equal -(v_pzz1-118.198958937988)/(v_delta/v_len0)*0.0001
variable d4 equal -(v_pyz1-${pyz0})/(v_delta/v_len0)*${cfac}
variable d4 equal -(v_pyz1-1.19579204389538)/(v_delta/v_len0)*${cfac}
variable d4 equal -(v_pyz1-1.19579204389538)/(v_delta/v_len0)*0.0001
variable d5 equal -(v_pxz1-${pxz0})/(v_delta/v_len0)*${cfac}
variable d5 equal -(v_pxz1-2.0004548232056)/(v_delta/v_len0)*${cfac}
variable d5 equal -(v_pxz1-2.0004548232056)/(v_delta/v_len0)*0.0001
variable d6 equal -(v_pxy1-${pxy0})/(v_delta/v_len0)*${cfac}
variable d6 equal -(v_pxy1-2.2930883075963)/(v_delta/v_len0)*${cfac}
variable d6 equal -(v_pxy1-2.2930883075963)/(v_delta/v_len0)*0.0001

displace_atoms all random ${atomjiggle} ${atomjiggle} ${atomjiggle} 87287 units box
displace_atoms all random 1e-05 ${atomjiggle} ${atomjiggle} 87287 units box
displace_atoms all random 1e-05 1e-05 ${atomjiggle} 87287 units box
displace_atoms all random 1e-05 1e-05 1e-05 87287 units box
Displacing atoms ...

# Write restart
unfix 3
write_restart restart.equil
System init for write_restart ...

# uxx Perturbation

variable dir equal 1
include displace.mod
# NOTE: This script should not need to be
# modified. See in.elastic for more info.
#
# Find which reference length to use

if "${dir} == 1" then    "variable len0 equal ${lx0}"
variable len0 equal ${lx0}
variable len0 equal 172.565676606809
if "${dir} == 2" then    "variable len0 equal ${ly0}"
if "${dir} == 3" then    "variable len0 equal ${lz0}"
if "${dir} == 4" then    "variable len0 equal ${lz0}"
if "${dir} == 5" then    "variable len0 equal ${lz0}"
if "${dir} == 6" then    "variable len0 equal ${ly0}"

# Reset box and simulation parameters

clear
box tilt large
read_restart restart.equil
Reading restart file ...
  restart file = 27 Oct 2021, LAMMPS = 27 Oct 2021
  restoring atom style atomic from restart
  triclinic box = (0.16597440 0.17211010 0.0096775243) to (172.73165 183.21351 9.9725715) with tilt (0.0000000 0.0000000 0.0000000)
  1 by 1 by 1 MPI processor grid
  pair style eam/alloy stores no restart info
  28800 atoms
  read_restart CPU = 0.003 seconds
include potential.mod
# NOTE: This script can be modified for different pair styles
# See in.elastic for more info.

# Choose potential
#pair_style	sw
#pair_coeff * * Si.sw Si
pair_style	eam/alloy
pair_coeff	* * NiCo-lammps-2014.alloy Ni Co

# Setup neighbor style
neighbor 1.0 nsq
neigh_modify once no every 1 delay 0 check yes

# Setup minimization style
min_style	     cg
min_modify	     dmax ${dmax} line quadratic
min_modify	     dmax 0.01 line quadratic

# Setup output
thermo		1
thermo_style custom step temp pe press pxx pyy pzz pxy pxz pyz lx ly lz vol
thermo_modify norm no

# Negative deformation

variable delta equal -${up}*${len0}
variable delta equal -1e-06*${len0}
variable delta equal -1e-06*172.565676606809
variable deltaxy equal -${up}*xy
variable deltaxy equal -1e-06*xy
variable deltaxz equal -${up}*xz
variable deltaxz equal -1e-06*xz
variable deltayz equal -${up}*yz
variable deltayz equal -1e-06*yz
if "${dir} == 1" then    "change_box all x delta 0 ${delta} xy delta ${deltaxy} xz delta ${deltaxz} remap units box"
change_box all x delta 0 ${delta} xy delta ${deltaxy} xz delta ${deltaxz} remap units box
change_box all x delta 0 -0.000172565676606809 xy delta ${deltaxy} xz delta ${deltaxz} remap units box
change_box all x delta 0 -0.000172565676606809 xy delta -0 xz delta ${deltaxz} remap units box
change_box all x delta 0 -0.000172565676606809 xy delta -0 xz delta -0 remap units box
Changing box ...
  triclinic box = (0.16597440 0.17211010 0.0096775243) to (172.73148 183.21351 9.9725715) with tilt (0.0000000 0.0000000 0.0000000)
  triclinic box = (0.16597440 0.17211010 0.0096775243) to (172.73148 183.21351 9.9725715) with tilt (0.0000000 0.0000000 0.0000000)
  triclinic box = (0.16597440 0.17211010 0.0096775243) to (172.73148 183.21351 9.9725715) with tilt (0.0000000 0.0000000 0.0000000)
if "${dir} == 2" then    "change_box all y delta 0 ${delta} yz delta ${deltayz} remap units box"
if "${dir} == 3" then    "change_box all z delta 0 ${delta} remap units box"
if "${dir} == 4" then    "change_box all yz delta ${delta} remap units box"
if "${dir} == 5" then    "change_box all xz delta ${delta} remap units box"
if "${dir} == 6" then    "change_box all xy delta ${delta} remap units box"

# Relax atoms positions

minimize ${etol} ${ftol} ${maxiter} ${maxeval}
minimize 0 ${ftol} ${maxiter} ${maxeval}
minimize 0 1e-10 ${maxiter} ${maxeval}
minimize 0 1e-10 100 ${maxeval}
minimize 0 1e-10 100 1000
Neighbor list info ...
  update every 1 steps, delay 0 steps, check yes
  max neighbors/atom: 2000, page size: 100000
  master list distance cutoff = 7.5
  ghost atom cutoff = 7.5
  1 neighbor lists, perpetual/occasional/extra = 1 0 0
  (1) pair eam/alloy, perpetual
      attributes: half, newton on
      pair build: half/nsq/newton
      stencil: none
      bin: none
Per MPI rank memory allocation (min/avg/max) = 36.13 | 36.13 | 36.13 Mbytes
Step Temp PotEng Press Pxx Pyy Pzz Pxy Pxz Pyz Lx Ly Lz Volume 
     100            0   -128062.02    55.940322     80.13116   -31.757647    119.44745    2.6744636     1.998585    1.1957686     172.5655     183.0414     9.962894    314694.27 
     101            0   -128062.07    58.518187    81.477386   -30.040064    124.11724    3.2076924     1.865843    1.1913742     172.5655     183.0414     9.962894    314694.27 
     102            0   -128062.09    54.475897    76.551063   -34.702985    121.57961    3.7028966    1.8234381    1.1837885     172.5655     183.0414     9.962894    314694.27 
     103            0   -128062.11    56.311905    78.663452   -32.789773    123.06204    3.4845007    1.8441822    1.1973437     172.5655     183.0414     9.962894    314694.27 
     104            0   -128062.12    55.064155    77.578126   -33.849169    121.46351    3.4025963    1.8363518    1.1736604     172.5655     183.0414     9.962894    314694.27 
     105            0   -128062.13    52.899418    75.300897   -35.989622    119.38698    3.5623123     1.840235     1.155952     172.5655     183.0414     9.962894    314694.27 
     106            0   -128062.14    52.964504    75.126329   -35.853465    119.62065    4.0594196    1.8551271    1.1889617     172.5655     183.0414     9.962894    314694.27 
     107            0   -128062.14    52.675318    74.808192   -36.051806    119.26957    4.1410761    1.8580122     1.213661     172.5655     183.0414     9.962894    314694.27 
     108            0   -128062.15    52.565348    74.749399   -36.217814    119.16446    4.0141603    1.8444703    1.1907545     172.5655     183.0414     9.962894    314694.27 
     109            0   -128062.15    52.882847    75.031837   -35.904504    119.52121    4.0807497    1.8386985     1.179011     172.5655     183.0414     9.962894    314694.27 
     110            0   -128062.15     52.78725     74.93624   -35.944242    119.36975    4.1074149    1.8446137    1.1748347     172.5655     183.0414     9.962894    314694.27 
     111            0   -128062.15    52.481088    74.567543   -36.273593    119.14931    4.1289749    1.8541176    1.1612625     172.5655     183.0414     9.962894    314694.27 
     112            0   -128062.15    52.425066    74.451499   -36.336211    119.15991    4.2177322    1.8472141    1.1839449     172.5655     183.0414     9.962894    314694.27 
     113            0   -128062.15    52.424759    74.444427   -36.295457    119.12531    4.2833383    1.8397545    1.2036382     172.5655     183.0414     9.962894    314694.27 
     114            0   -128062.15    52.319505    74.343478   -36.415239    119.03028    4.2819299    1.8449228    1.1927772     172.5655     183.0414     9.962894    314694.27 
     115            0   -128062.16    52.264118    74.302632   -36.481934    118.97165    4.2882108    1.8531035    1.1756083     172.5655     183.0414     9.962894    314694.27 
     116            0   -128062.16    52.205548    74.251078   -36.536159    118.90173    4.2651533    1.8514562    1.1745548     172.5655     183.0414     9.962894    314694.27 
     117            0   -128062.16     52.09866    74.124192   -36.648764    118.82055    4.2713691    1.8437462    1.1734061     172.5655     183.0414     9.962894    314694.27 
     118            0   -128062.16    52.108251    74.102316   -36.628531    118.85097    4.3497344    1.8433278    1.1785521     172.5655     183.0414     9.962894    314694.27 
     119            0   -128062.16    52.222092    74.205449   -36.517267    118.97809    4.3838211     1.852289    1.1840285     172.5655     183.0414     9.962894    314694.27 
     120            0   -128062.16    52.188217    74.164219   -36.572839    118.97327     4.403679    1.8464423    1.1842974     172.5655     183.0414     9.962894    314694.27 
     121            0   -128062.16    52.091956    74.066846   -36.673089    118.88211    4.4168324    1.8436118    1.1812726     172.5655     183.0414     9.962894    314694.27 
     122            0   -128062.16    52.056006    74.025484   -36.710069     118.8526     4.420319    1.8455167    1.1735315     172.5655     183.0414     9.962894    314694.27 
     123            0   -128062.16    52.033108    73.996463    -36.72688    118.82974    4.4310953    1.8433319    1.1741598     172.5655     183.0414     9.962894    314694.27 
     124            0   -128062.16    52.039077    74.005842   -36.721961    118.83335    4.4370988    1.8447276    1.1856759     172.5655     183.0414     9.962894    314694.27 
     125            0   -128062.16    52.050461    74.023379   -36.722719    118.85072    4.4390328    1.8433477    1.1784057     172.5655     183.0414     9.962894    314694.27 
     126            0   -128062.16    52.005575    73.969833   -36.759784    118.80668    4.4463569    1.8361853    1.1640581     172.5655     183.0414     9.962894    314694.27 
     127            0   -128062.16    51.958316    73.894124   -36.800248    118.78107    4.4647048    1.8374001    1.1639089     172.5655     183.0414     9.962894    314694.27 
     128            0   -128062.16    51.967662    73.896133   -36.791692    118.79855    4.4799319     1.839821    1.1728123     172.5655     183.0414     9.962894    314694.27 
     129            0   -128062.16    51.992161    73.930243   -36.763966    118.81021    4.4833445    1.8430999    1.1812248     172.5655     183.0414     9.962894    314694.27 
     130            0   -128062.16     51.97726    73.919372   -36.783858    118.79627    4.4693966    1.8480109    1.1775858     172.5655     183.0414     9.962894    314694.27 
     131            0   -128062.16    51.940531    73.887212   -36.823422     118.7578    4.4547117    1.8392095    1.1680377     172.5655     183.0414     9.962894    314694.27 
     132            0   -128062.16     51.92467    73.868086   -36.832542    118.73847    4.4607939    1.8270915    1.1671182     172.5655     183.0414     9.962894    314694.27 
     133            0   -128062.16    51.919961    73.854947    -36.84233    118.74727      4.47932    1.8351485    1.1670949     172.5655     183.0414     9.962894    314694.27 
     134            0   -128062.16    51.926537    73.858933   -36.838545    118.75922    4.4934507    1.8411761    1.1645515     172.5655     183.0414     9.962894    314694.27 
     135            0   -128062.16    51.946826    73.879145   -36.809635    118.77097    4.4933741    1.8429514    1.1676574     172.5655     183.0414     9.962894    314694.27 
     136            0   -128062.16    51.933357    73.868009   -36.823908    118.75597    4.4823123     1.839036    1.1762163     172.5655     183.0414     9.962894    314694.27 
     137            0   -128062.16    51.911057    73.855362   -36.852212    118.73002     4.473327    1.8337631    1.1745267     172.5655     183.0414     9.962894    314694.27 
     138            0   -128062.16    51.912855    73.866118    -36.85682    118.72927    4.4750469    1.8368969    1.1691173     172.5655     183.0414     9.962894    314694.27 
     139            0   -128062.16    51.919152    73.874812   -36.845398    118.72804    4.4756261    1.8406533    1.1635407     172.5655     183.0414     9.962894    314694.27 
     140            0   -128062.16    51.920243    73.872456   -36.836011    118.72428    4.4744287    1.8337641    1.1645136     172.5655     183.0414     9.962894    314694.27 
     141            0   -128062.16    51.916134    73.866433   -36.845291    118.72726    4.4785011    1.8361503    1.1708265     172.5655     183.0414     9.962894    314694.27 
     142            0   -128062.16    51.901819    73.852291   -36.859545    118.71271    4.4802413    1.8395159    1.1742711     172.5655     183.0414     9.962894    314694.27 
     143            0   -128062.16    51.894283     73.84831    -36.86562    118.70016    4.4808069    1.8372799    1.1708496     172.5655     183.0414     9.962894    314694.27 
     144            0   -128062.16    51.900534    73.851672   -36.858645    118.70858    4.4795591    1.8370254    1.1690392     172.5655     183.0414     9.962894    314694.27 
     145            0   -128062.16    51.909928    73.860898   -36.848568    118.71746    4.4760562     1.839473    1.1686373     172.5655     183.0414     9.962894    314694.27 
     146            0   -128062.16    51.904765     73.85846   -36.853527    118.70936    4.4763161    1.8370966    1.1696637     172.5655     183.0414     9.962894    314694.27 
     147            0   -128062.16    51.896217    73.846454   -36.863208    118.70541    4.4810232     1.836681    1.1716276     172.5655     183.0414     9.962894    314694.27 
     148            0   -128062.16    51.894853    73.840366   -36.865517    118.70971    4.4856858    1.8380179    1.1711122     172.5655     183.0414     9.962894    314694.27 
     149            0   -128062.16     51.89707    73.838719   -36.860796    118.71329    4.4863696    1.8373142    1.1696224     172.5655     183.0414     9.962894    314694.27 
     150            0   -128062.16    51.900891    73.840553   -36.855511    118.71763     4.486095     1.838193    1.1706926     172.5655     183.0414     9.962894    314694.27 
     151            0   -128062.16    51.899867    73.839406    -36.85846    118.71866    4.4873427     1.839637    1.1717877     172.5655     183.0414     9.962894    314694.27 
     152            0   -128062.16    51.894582    73.833631   -36.863261    118.71338    4.4869248    1.8380252    1.1708721     172.5655     183.0414     9.962894    314694.27 
     153            0   -128062.16    51.892086    73.832165   -36.865451    118.70954    4.4869816    1.8366668    1.1700755     172.5655     183.0414     9.962894    314694.27 
     154            0   -128062.16      51.8956    73.834415   -36.862286    118.71467    4.4871125    1.8383354    1.1705299     172.5655     183.0414     9.962894    314694.27 
     155            0   -128062.16    51.898255    73.834489   -36.857953    118.71823    4.4876397    1.8390487    1.1704278     172.5655     183.0414     9.962894    314694.27 
     156            0   -128062.16    51.898212    73.835344   -36.857513     118.7168    4.4898672    1.8380303    1.1724246     172.5655     183.0414     9.962894    314694.27 
     157            0   -128062.16     51.89661    73.835456   -36.860022     118.7144     4.489368    1.8382763    1.1723901     172.5655     183.0414     9.962894    314694.27 
     158            0   -128062.16    51.893444    73.831909   -36.864273     118.7127    4.4866644    1.8391027    1.1697658     172.5655     183.0414     9.962894    314694.27 
     159            0   -128062.16    51.895526    73.833371   -36.861487     118.7147    4.4866145    1.8395252    1.1703304     172.5655     183.0414     9.962894    314694.27 
     160            0   -128062.16    51.901012    73.842031   -36.856459    118.71746     4.487366    1.8391174    1.1722688     172.5655     183.0414     9.962894    314694.27 
     161            0   -128062.16    51.901983    73.845407    -36.85672    118.71726    4.4873765    1.8385401    1.1721387     172.5655     183.0414     9.962894    314694.27 
     162            0   -128062.16    51.900853    73.842516   -36.858416    118.71846    4.4889586     1.839337    1.1716009     172.5655     183.0414     9.962894    314694.27 
     163            0   -128062.16    51.901774    73.842706   -36.858502    118.72112    4.4896716    1.8398928    1.1712826     172.5655     183.0414     9.962894    314694.27 
     164            0   -128062.16    51.902997    73.842728   -36.857447    118.72371    4.4908606    1.8388468    1.1718348     172.5655     183.0414     9.962894    314694.27 
     165            0   -128062.16     51.90481    73.845041   -36.856315     118.7257    4.4920179    1.8399347    1.1718862     172.5655     183.0414     9.962894    314694.27 
     166            0   -128062.16    51.907368    73.849226   -36.855087    118.72797    4.4915536    1.8398877    1.1719505     172.5655     183.0414     9.962894    314694.27 
     167            0   -128062.16    51.906307    73.847152   -36.856877    118.72865    4.4925672    1.8383096    1.1714448     172.5655     183.0414     9.962894    314694.27 
     168            0   -128062.16    51.902995    73.841954    -36.85976    118.72679    4.4942618    1.8384207    1.1712819     172.5655     183.0414     9.962894    314694.27 
     169            0   -128062.16    51.902817    73.840101   -36.859632    118.72798    4.4952112    1.8390218    1.1723189     172.5655     183.0414     9.962894    314694.27 
     170            0   -128062.16    51.904885    73.842025    -36.85841    118.73104    4.4968689    1.8400554    1.1727157     172.5655     183.0414     9.962894    314694.27 
     171            0   -128062.16    51.903019    73.840578   -36.861225     118.7297    4.4979288    1.8405401    1.1721189     172.5655     183.0414     9.962894    314694.27 
     172            0   -128062.16    51.899955    73.836776   -36.864689    118.72778     4.497818    1.8397116    1.1716254     172.5655     183.0414     9.962894    314694.27 
     173            0   -128062.16    51.897222    73.832265   -36.866496     118.7259     4.498014    1.8384225    1.1714653     172.5655     183.0414     9.962894    314694.27 
     174            0   -128062.16    51.894154    73.828846   -36.869629    118.72325    4.4986817    1.8386315    1.1718369     172.5655     183.0414     9.962894    314694.27 
     175            0   -128062.16     51.89451    73.829252   -36.869847    118.72412    4.4989734    1.8401858    1.1723362     172.5655     183.0414     9.962894    314694.27 
     176            0   -128062.16     51.89562    73.830342   -36.868588    118.72511      4.49874    1.8404317    1.1726077     172.5655     183.0414     9.962894    314694.27 
     177            0   -128062.16    51.893078    73.827362   -36.871321    118.72319    4.4990263    1.8404112    1.1721839     172.5655     183.0414     9.962894    314694.27 
     178            0   -128062.16    51.891388    73.824291   -36.873296    118.72317    4.5003282    1.8399215    1.1720341     172.5655     183.0414     9.962894    314694.27 
     179            0   -128062.16    51.892148    73.823836   -36.872278    118.72488    4.5012251    1.8390456    1.1722899     172.5655     183.0414     9.962894    314694.27 
     180            0   -128062.16    51.893585      73.8242   -36.870461    118.72702    4.5022414     1.840648    1.1724877     172.5655     183.0414     9.962894    314694.27 
     181            0   -128062.16    51.894398    73.823701   -36.869115    118.72861    4.5028634    1.8416894    1.1727653     172.5655     183.0414     9.962894    314694.27 
     182            0   -128062.16    51.894879    73.823747   -36.869163    118.73005    4.5031792    1.8400862    1.1726045     172.5655     183.0414     9.962894    314694.27 
     183            0   -128062.16     51.89316    73.820111   -36.870498    118.72987    4.5061671    1.8392596    1.1721956     172.5655     183.0414     9.962894    314694.27 
     184            0   -128062.16    51.890614    73.815859   -36.872616     118.7286    4.5098548    1.8396514    1.1723511     172.5655     183.0414     9.962894    314694.27 
     185            0   -128062.16    51.891086     73.81581   -36.873087    118.73054    4.5115491      1.84064    1.1724855     172.5655     183.0414     9.962894    314694.27 
     186            0   -128062.16     51.89247    73.815452   -36.871835    118.73379    4.5141481    1.8410116    1.1734462     172.5655     183.0414     9.962894    314694.27 
     187            0   -128062.16    51.889961    73.810278   -36.872505    118.73211    4.5166803    1.8402882    1.1738385     172.5655     183.0414     9.962894    314694.27 
     188            0   -128062.16    51.887175    73.806499   -36.874897    118.72992    4.5200298    1.8409854    1.1719324     172.5655     183.0414     9.962894    314694.27 
     189            0   -128062.16    51.886093    73.804323   -36.876173    118.73013    4.5254335    1.8405188    1.1723275     172.5655     183.0414     9.962894    314694.27 
     190            0   -128062.16    51.885409    73.802825   -36.876966    118.73037    4.5278754    1.8394427    1.1729625     172.5655     183.0414     9.962894    314694.27 
     191            0   -128062.16    51.885653    73.803301   -36.877176    118.73083    4.5281366    1.8396596    1.1727351     172.5655     183.0414     9.962894    314694.27 
     192            0   -128062.16    51.885524    73.801956   -36.876354    118.73097    4.5297646    1.8409483    1.1728665     172.5655     183.0414     9.962894    314694.27 
     193            0   -128062.16    51.882381     73.79662    -36.87899    118.72951    4.5327881    1.8412676     1.173549     172.5655     183.0414     9.962894    314694.27 
     194            0   -128062.16    51.879721    73.794123   -36.883361     118.7284    4.5352931    1.8411782    1.1734677     172.5655     183.0414     9.962894    314694.27 
     195            0   -128062.16    51.880706    73.793458   -36.881556    118.73021    4.5367325    1.8406637    1.1736904     172.5655     183.0414     9.962894    314694.27 
     196            0   -128062.16    51.882128     73.79371   -36.879445    118.73212    4.5364887    1.8409755    1.1726183     172.5655     183.0414     9.962894    314694.27 
     197            0   -128062.16     51.88187    73.793962   -36.880661    118.73231    4.5366725    1.8403024    1.1726036     172.5655     183.0414     9.962894    314694.27 
     198            0   -128062.16    51.882411    73.793315   -36.879638    118.73356    4.5386107    1.8401982     1.172928     172.5655     183.0414     9.962894    314694.27 
     199            0   -128062.16    51.882106    73.792164   -36.879554    118.73371    4.5398444    1.8406762    1.1731509     172.5655     183.0414     9.962894    314694.27 
     200            0   -128062.16    51.881737    73.791418   -36.880301     118.7341    4.5391243    1.8410253    1.1734545     172.5655     183.0414     9.962894    314694.27 
Loop time of 9.57009 on 1 procs for 100 steps with 28800 atoms

98.1% CPU use with 1 MPI tasks x no OpenMP threads

Minimization stats:
  Stopping criterion = max iterations
  Energy initial, next-to-last, final = 
     -128062.017045473   -128062.16275514  -128062.162756615
  Force two-norm initial, final = 1.1156889 0.0040771756
  Force max component initial, final = 0.020090708 0.00010709050
  Final line search alpha, max atom move = 1.0000000 0.00010709050
  Iterations, force evaluations = 100 200

MPI task timing breakdown:
Section |  min time  |  avg time  |  max time  |%varavg| %total
---------------------------------------------------------------
Pair    | 9.3077     | 9.3077     | 9.3077     |   0.0 | 97.26
Neigh   | 0          | 0          | 0          |   0.0 |  0.00
Comm    | 0.051627   | 0.051627   | 0.051627   |   0.0 |  0.54
Output  | 0.10921    | 0.10921    | 0.10921    |   0.0 |  1.14
Modify  | 0          | 0          | 0          |   0.0 |  0.00
Other   |            | 0.1015     |            |       |  1.06

Nlocal:        28800.0 ave       28800 max       28800 min
Histogram: 1 0 0 0 0 0 0 0 0 0
Nghost:        55590.0 ave       55590 max       55590 min
Histogram: 1 0 0 0 0 0 0 0 0 0
Neighs:    2.53440e+06 ave  2.5344e+06 max  2.5344e+06 min
Histogram: 1 0 0 0 0 0 0 0 0 0

Total # of neighbors = 2534400
Ave neighs/atom = 88.000000
Neighbor list builds = 0
Dangerous builds = 0

# Obtain new stress tensor

variable tmp equal pxx
variable pxx1 equal ${tmp}
variable pxx1 equal 73.7914184121294
variable tmp equal pyy
variable pyy1 equal ${tmp}
variable pyy1 equal -36.8803014507154
variable tmp equal pzz
variable pzz1 equal ${tmp}
variable pzz1 equal 118.734095416063
variable tmp equal pxy
variable pxy1 equal ${tmp}
variable pxy1 equal 4.5391243205387
variable tmp equal pxz
variable pxz1 equal ${tmp}
variable pxz1 equal 1.84102534732994
variable tmp equal pyz
variable pyz1 equal ${tmp}
variable pyz1 equal 1.17345452431592

# Compute elastic constant from pressure tensor

variable C1neg equal ${d1}
variable C1neg equal -309.221867472709
variable C2neg equal ${d2}
variable C2neg equal -414.33388307593
variable C3neg equal ${d3}
variable C3neg equal 53.5136478075003
variable C4neg equal ${d4}
variable C4neg equal -2.233751957946
variable C5neg equal ${d5}
variable C5neg equal -15.942947587566
variable C6neg equal ${d6}
variable C6neg equal 224.60360129424

# Reset box and simulation parameters

clear
box tilt large
read_restart restart.equil
Reading restart file ...
  restart file = 27 Oct 2021, LAMMPS = 27 Oct 2021
  restoring atom style atomic from restart
  triclinic box = (0.16597440 0.17211010 0.0096775243) to (172.73165 183.21351 9.9725715) with tilt (0.0000000 0.0000000 0.0000000)
  1 by 1 by 1 MPI processor grid
  pair style eam/alloy stores no restart info
  28800 atoms
  read_restart CPU = 0.002 seconds
include potential.mod
# NOTE: This script can be modified for different pair styles
# See in.elastic for more info.

# Choose potential
#pair_style	sw
#pair_coeff * * Si.sw Si
pair_style	eam/alloy
pair_coeff	* * NiCo-lammps-2014.alloy Ni Co

# Setup neighbor style
neighbor 1.0 nsq
neigh_modify once no every 1 delay 0 check yes

# Setup minimization style
min_style	     cg
min_modify	     dmax ${dmax} line quadratic
min_modify	     dmax 0.01 line quadratic

# Setup output
thermo		1
thermo_style custom step temp pe press pxx pyy pzz pxy pxz pyz lx ly lz vol
thermo_modify norm no

# Positive deformation

variable delta equal ${up}*${len0}
variable delta equal 1e-06*${len0}
variable delta equal 1e-06*172.565676606809
variable deltaxy equal ${up}*xy
variable deltaxy equal 1e-06*xy
variable deltaxz equal ${up}*xz
variable deltaxz equal 1e-06*xz
variable deltayz equal ${up}*yz
variable deltayz equal 1e-06*yz
if "${dir} == 1" then    "change_box all x delta 0 ${delta} xy delta ${deltaxy} xz delta ${deltaxz} remap units box"
change_box all x delta 0 ${delta} xy delta ${deltaxy} xz delta ${deltaxz} remap units box
change_box all x delta 0 0.000172565676606809 xy delta ${deltaxy} xz delta ${deltaxz} remap units box
change_box all x delta 0 0.000172565676606809 xy delta 0 xz delta ${deltaxz} remap units box
change_box all x delta 0 0.000172565676606809 xy delta 0 xz delta 0 remap units box
Changing box ...
  triclinic box = (0.16597440 0.17211010 0.0096775243) to (172.73182 183.21351 9.9725715) with tilt (0.0000000 0.0000000 0.0000000)
  triclinic box = (0.16597440 0.17211010 0.0096775243) to (172.73182 183.21351 9.9725715) with tilt (0.0000000 0.0000000 0.0000000)
  triclinic box = (0.16597440 0.17211010 0.0096775243) to (172.73182 183.21351 9.9725715) with tilt (0.0000000 0.0000000 0.0000000)
if "${dir} == 2" then    "change_box all y delta 0 ${delta} yz delta ${deltayz} remap units box"
if "${dir} == 3" then    "change_box all z delta 0 ${delta} remap units box"
if "${dir} == 4" then    "change_box all yz delta ${delta} remap units box"
if "${dir} == 5" then    "change_box all xz delta ${delta} remap units box"
if "${dir} == 6" then    "change_box all xy delta ${delta} remap units box"

# Relax atoms positions

minimize ${etol} ${ftol} ${maxiter} ${maxeval}
minimize 0 ${ftol} ${maxiter} ${maxeval}
minimize 0 1e-10 ${maxiter} ${maxeval}
minimize 0 1e-10 100 ${maxeval}
minimize 0 1e-10 100 1000
Neighbor list info ...
  update every 1 steps, delay 0 steps, check yes
  max neighbors/atom: 2000, page size: 100000
  master list distance cutoff = 7.5
  ghost atom cutoff = 7.5
  1 neighbor lists, perpetual/occasional/extra = 1 0 0
  (1) pair eam/alloy, perpetual
      attributes: half, newton on
      pair build: half/nsq/newton
      stencil: none
      bin: none
Per MPI rank memory allocation (min/avg/max) = 36.13 | 36.13 | 36.13 Mbytes
Step Temp PotEng Press Pxx Pyy Pzz Pxy Pxz Pyz Lx Ly Lz Volume 
     100            0   -128062.02    52.292877    73.640323   -33.714094     116.9524    1.9147255    1.9985509     1.195724    172.56585     183.0414     9.962894     314694.9 
     101            0   -128062.07    54.872539    74.989891   -31.995518    121.62324    2.4480648    1.8658421    1.1913265    172.56585     183.0414     9.962894     314694.9 
     102            0   -128062.09    50.829744    70.063208   -36.659025    119.08505    2.9432345    1.8234292     1.183753    172.56585     183.0414     9.962894     314694.9 
     103            0   -128062.11    52.665794    72.175875   -34.745913    120.56742      2.72478    1.8441812    1.1972992    172.56585     183.0414     9.962894     314694.9 
     104            0   -128062.12    51.418135    71.090236   -35.804935     118.9691    2.6428838    1.8363511    1.1736268    172.56585     183.0414     9.962894     314694.9 
     105            0   -128062.13    49.253232    68.813028   -37.945717    116.89239    2.8026915     1.840232    1.1559045    172.56585     183.0414     9.962894     314694.9 
     106            0   -128062.14    49.318056    68.638021   -37.809734    117.12588    3.2997586    1.8551189    1.1889212    172.56585     183.0414     9.962894     314694.9 
     107            0   -128062.14    49.029195    68.320511   -38.007925      116.775     3.381421    1.8580075     1.213615    172.56585     183.0414     9.962894     314694.9 
     108            0   -128062.15    48.919067    68.261444   -38.173992    116.66975    3.2544895    1.8444633    1.1907165    172.56585     183.0414     9.962894     314694.9 
     109            0   -128062.15    49.236487    68.543739   -37.860747    117.02647    3.3210768    1.8386956    1.1789659    172.56585     183.0414     9.962894     314694.9 
     110            0   -128062.15    49.140948    68.448176   -37.900435     116.8751    3.3477721    1.8446104    1.1747909    172.56585     183.0414     9.962894     314694.9 
     111            0   -128062.15    48.834765    68.079456   -38.229783    116.65462    3.3693209    1.8541108    1.1612231    172.56585     183.0414     9.962894     314694.9 
     112            0   -128062.15    48.778767    67.963565   -38.292446    116.66518    3.4580589    1.8472104    1.1839005    172.56585     183.0414     9.962894     314694.9 
     113            0   -128062.15    48.778467    67.956475   -38.251664    116.63059    3.5236512    1.8397494    1.2035992    172.56585     183.0414     9.962894     314694.9 
     114            0   -128062.15    48.673242    67.855566   -38.371431    116.53559    3.5222635    1.8449189    1.1927332    172.56585     183.0414     9.962894     314694.9 
     115            0   -128062.16    48.617758    67.814522    -38.43817    116.47692    3.5285518    1.8530977    1.1755643    172.56585     183.0414     9.962894     314694.9 
     116            0   -128062.16     48.55921    67.763014   -38.492395    116.40701    3.5054967    1.8514493    1.1745133    172.56585     183.0414     9.962894     314694.9 
     117            0   -128062.16    48.452365    67.636222   -38.604975    116.32585     3.511699    1.8437432    1.1733636    172.56585     183.0414     9.962894     314694.9 
     118            0   -128062.16    48.461946    67.614357   -38.584758    116.35624     3.590051    1.8433222    1.1785125    172.56585     183.0414     9.962894     314694.9 
     119            0   -128062.16     48.57578    67.717473   -38.473507    116.48337    3.6241443     1.852286    1.1839848    172.56585     183.0414     9.962894     314694.9 
     120            0   -128062.16    48.541888    67.676161   -38.529058    116.47856    3.6440104    1.8464355    1.1842562    172.56585     183.0414     9.962894     314694.9 
     121            0   -128062.16    48.445637    67.578831   -38.629321     116.3874    3.6571707    1.8436058    1.1812292    172.56585     183.0414     9.962894     314694.9 
     122            0   -128062.16    48.409672    67.537459    -38.66631    116.35787    3.6606417    1.8455128    1.1734898    172.56585     183.0414     9.962894     314694.9 
     123            0   -128062.16    48.386818    67.508531   -38.683103    116.33503    3.6714138     1.843327    1.1741182    172.56585     183.0414     9.962894     314694.9 
     124            0   -128062.16    48.392768    67.517871   -38.678191    116.33863     3.677422    1.8447232    1.1856331    172.56585     183.0414     9.962894     314694.9 
     125            0   -128062.16    48.404121    67.535337   -38.678965    116.35599    3.6793622    1.8433422    1.1783641    172.56585     183.0414     9.962894     314694.9 
     126            0   -128062.16    48.359244    67.481805   -38.716027    116.31196    3.6866882    1.8361802    1.1640157    172.56585     183.0414     9.962894     314694.9 
     127            0   -128062.16    48.311993    67.406117   -38.756485    116.28635    3.7050299    1.8373965    1.1638672    172.56585     183.0414     9.962894     314694.9 
     128            0   -128062.16     48.32135    67.408171   -38.747934    116.30381      3.72025    1.8398157    1.1727705    172.56585     183.0414     9.962894     314694.9 
     129            0   -128062.16    48.345843    67.442253   -38.720202    116.31548    3.7236624    1.8430946    1.1811825    172.56585     183.0414     9.962894     314694.9 
     130            0   -128062.16    48.330942    67.431372   -38.740093    116.30155    3.7097264    1.8480047    1.1775436    172.56585     183.0414     9.962894     314694.9 
     131            0   -128062.16    48.294188    67.399171   -38.779672    116.26307    3.6950419    1.8392061    1.1679954    172.56585     183.0414     9.962894     314694.9 
     132            0   -128062.16    48.278341    67.380074   -38.788786    116.24374    3.7011197    1.8270874     1.167076    172.56585     183.0414     9.962894     314694.9 
     133            0   -128062.16    48.273652    67.366984   -38.798566    116.25254    3.7196396    1.8351445    1.1670529    172.56585     183.0414     9.962894     314694.9 
     134            0   -128062.16    48.280216    67.370946   -38.794786    116.26449    3.7337674    1.8411701    1.1645095    172.56585     183.0414     9.962894     314694.9 
     135            0   -128062.16    48.300498     67.39114   -38.765883    116.27624    3.7336997    1.8429455    1.1676146    172.56585     183.0414     9.962894     314694.9 
     136            0   -128062.16     48.28702    67.379977   -38.780157    116.26124    3.7226407    1.8390328    1.1761744    172.56585     183.0414     9.962894     314694.9 
     137            0   -128062.16    48.264728    67.367351   -38.808458    116.23529    3.7136535     1.833758     1.174485    172.56585     183.0414     9.962894     314694.9 
     138            0   -128062.16    48.266531    67.378128   -38.813066    116.23453    3.7153664    1.8368923    1.1690739    172.56585     183.0414     9.962894     314694.9 
     139            0   -128062.16    48.272838    67.386837   -38.801635    116.23331    3.7159452    1.8406474    1.1634988    172.56585     183.0414     9.962894     314694.9 
     140            0   -128062.16    48.273918     67.38446   -38.792257    116.22955    3.7147544    1.8337602    1.1644711    172.56585     183.0414     9.962894     314694.9 
     141            0   -128062.16    48.269793    67.378402   -38.801545    116.23252    3.7188288    1.8361465    1.1707849    172.56585     183.0414     9.962894     314694.9 
     142            0   -128062.16     48.25549    67.364281   -38.815791    116.21798     3.720567    1.8395111    1.1742297    172.56585     183.0414     9.962894     314694.9 
     143            0   -128062.16    48.247957    67.360312   -38.821865    116.20543    3.7211287    1.8372751    1.1708072    172.56585     183.0414     9.962894     314694.9 
     144            0   -128062.16    48.254211     67.36368    -38.81489    116.21384    3.7198806    1.8370201    1.1689963    172.56585     183.0414     9.962894     314694.9 
     145            0   -128062.16    48.263601    67.372897   -38.804815    116.22272    3.7163803    1.8394681    1.1685953    172.56585     183.0414     9.962894     314694.9 
     146            0   -128062.16    48.258432    67.370446   -38.809775    116.21463    3.7166431    1.8370923     1.169622    172.56585     183.0414     9.962894     314694.9 
     147            0   -128062.16    48.249884    67.358439   -38.819457    116.21067    3.7213484    1.8366764    1.1715857    172.56585     183.0414     9.962894     314694.9 
     148            0   -128062.16    48.248526    67.352366   -38.821763    116.21498    3.7260082    1.8380136    1.1710701    172.56585     183.0414     9.962894     314694.9 
     149            0   -128062.16    48.250748    67.350728    -38.81704    116.21855    3.7266921    1.8373092      1.16958    172.56585     183.0414     9.962894     314694.9 
     150            0   -128062.16    48.254563    67.352551   -38.811758     116.2229    3.7264185     1.838188    1.1706503    172.56585     183.0414     9.962894     314694.9 
     151            0   -128062.16    48.253537    67.351396   -38.814708    116.22392    3.7276678    1.8396322    1.1717461    172.56585     183.0414     9.962894     314694.9 
     152            0   -128062.16    48.248251     67.34562   -38.819509    116.21864    3.7272501    1.8380207    1.1708301    172.56585     183.0414     9.962894     314694.9 
     153            0   -128062.16    48.245757    67.344161   -38.821698    116.21481    3.7273053    1.8366623    1.1700333    172.56585     183.0414     9.962894     314694.9 
     154            0   -128062.16    48.249275    67.346419   -38.818532    116.21994    3.7274349    1.8383307    1.1704876    172.56585     183.0414     9.962894     314694.9 
     155            0   -128062.16    48.251928    67.346488   -38.814199     116.2235    3.7279632    1.8390435    1.1703859    172.56585     183.0414     9.962894     314694.9 
     156            0   -128062.16    48.251881    67.347334   -38.813762    116.22207    3.7301927    1.8380254    1.1723826    172.56585     183.0414     9.962894     314694.9 
     157            0   -128062.16    48.250277    67.347443   -38.816271    116.21966    3.7296932    1.8382718    1.1723479    172.56585     183.0414     9.962894     314694.9 
     158            0   -128062.16    48.247116    67.343904   -38.820519    116.21796    3.7269888    1.8390981    1.1697237    172.56585     183.0414     9.962894     314694.9 
     159            0   -128062.16      48.2492    67.345372   -38.817733    116.21996    3.7269378      1.83952    1.1702884    172.56585     183.0414     9.962894     314694.9 
     160            0   -128062.16    48.254685     67.35403   -38.812705    116.22273    3.7276894    1.8391126    1.1722266    172.56585     183.0414     9.962894     314694.9 
     161            0   -128062.16    48.255653    67.357399   -38.812968    116.22253     3.727702    1.8385353    1.1720967    172.56585     183.0414     9.962894     314694.9 
     162            0   -128062.16    48.254521    67.354505   -38.814664    116.22372    3.7292843    1.8393324     1.171559    172.56585     183.0414     9.962894     314694.9 
     163            0   -128062.16    48.255444    67.354699   -38.814749    116.22638    3.7299957    1.8398882    1.1712404    172.56585     183.0414     9.962894     314694.9 
     164            0   -128062.16     48.25667    67.354728   -38.813693    116.22898     3.731184     1.838842    1.1717925    172.56585     183.0414     9.962894     314694.9 
     165            0   -128062.16    48.258482     67.35704   -38.812561    116.23097    3.7323417    1.8399296    1.1718441    172.56585     183.0414     9.962894     314694.9 
     166            0   -128062.16    48.261038    67.361219   -38.811335    116.23323    3.7318782    1.8398829    1.1719083    172.56585     183.0414     9.962894     314694.9 
     167            0   -128062.16    48.259976    67.359142   -38.813126    116.23391    3.7328925    1.8383052    1.1714031    172.56585     183.0414     9.962894     314694.9 
     168            0   -128062.16    48.256665    67.353947   -38.816008    116.23206    3.7345861    1.8384163      1.17124    172.56585     183.0414     9.962894     314694.9 
     169            0   -128062.16    48.256489    67.352101   -38.815879    116.23325    3.7355341    1.8390168    1.1722767    172.56585     183.0414     9.962894     314694.9 
     170            0   -128062.16    48.258558    67.354026   -38.814657    116.23631    3.7371921    1.8400506    1.1726735    172.56585     183.0414     9.962894     314694.9 
     171            0   -128062.16     48.25669    67.352572   -38.817473    116.23497     3.738253    1.8405352    1.1720769    172.56585     183.0414     9.962894     314694.9 
     172            0   -128062.16    48.253624    67.348767   -38.820937    116.23304    3.7381427    1.8397071    1.1715834    172.56585     183.0414     9.962894     314694.9 
     173            0   -128062.16    48.250892    67.344258   -38.822744    116.23116    3.7383383    1.8384182    1.1714231    172.56585     183.0414     9.962894     314694.9 
     174            0   -128062.16    48.247827    67.340845   -38.825875    116.22851    3.7390052    1.8386266    1.1717949    172.56585     183.0414     9.962894     314694.9 
     175            0   -128062.16    48.248182    67.341251   -38.826094    116.22939    3.7392963    1.8401808    1.1722941    172.56585     183.0414     9.962894     314694.9 
     176            0   -128062.16    48.249292    67.342339   -38.824835    116.23037    3.7390637    1.8404272    1.1725657    172.56585     183.0414     9.962894     314694.9 
     177            0   -128062.16    48.246748    67.339354   -38.827569    116.22846    3.7393507    1.8404066    1.1721421    172.56585     183.0414     9.962894     314694.9 
     178            0   -128062.16    48.245058    67.336283   -38.829544    116.22843    3.7406523    1.8399172    1.1719919    172.56585     183.0414     9.962894     314694.9 
     179            0   -128062.16     48.24582    67.335835   -38.828524    116.23015     3.741548    1.8390406    1.1722478    172.56585     183.0414     9.962894     314694.9 
     180            0   -128062.16    48.247259    67.336202   -38.826707    116.23228    3.7425639    1.8406431    1.1724452    172.56585     183.0414     9.962894     314694.9 
     181            0   -128062.16    48.248069    67.335698   -38.825362    116.23387    3.7431863    1.8416841    1.1727236    172.56585     183.0414     9.962894     314694.9 
     182            0   -128062.16    48.248548    67.335739   -38.825411    116.23532    3.7435031    1.8400821    1.1725626    172.56585     183.0414     9.962894     314694.9 
     183            0   -128062.16     48.24683    67.332104   -38.826746    116.23513    3.7464907    1.8392553    1.1721539    172.56585     183.0414     9.962894     314694.9 
     184            0   -128062.16    48.244286    67.327857   -38.828864    116.23386    3.7501775    1.8396466     1.172309    172.56585     183.0414     9.962894     314694.9 
     185            0   -128062.16    48.244759    67.327811   -38.829335     116.2358    3.7518706    1.8406349    1.1724431    172.56585     183.0414     9.962894     314694.9 
     186            0   -128062.16    48.246143    67.327451   -38.828083    116.23906    3.7544702    1.8410067    1.1734038    172.56585     183.0414     9.962894     314694.9 
     187            0   -128062.16     48.24363     67.32227   -38.828755    116.23737    3.7570036    1.8402836    1.1737968    172.56585     183.0414     9.962894     314694.9 
     188            0   -128062.16    48.240843     67.31849   -38.831147    116.23519    3.7603531    1.8409813    1.1718909    172.56585     183.0414     9.962894     314694.9 
     189            0   -128062.16    48.239764    67.316322   -38.832422    116.23539     3.765755    1.8405141    1.1722855    172.56585     183.0414     9.962894     314694.9 
     190            0   -128062.16    48.239083    67.314828   -38.833214    116.23563    3.7681961     1.839438      1.17292    172.56585     183.0414     9.962894     314694.9 
     191            0   -128062.16    48.239324      67.3153   -38.833426     116.2361    3.7684575    1.8396545     1.172693    172.56585     183.0414     9.962894     314694.9 
     192            0   -128062.16    48.239194    67.313951   -38.832603    116.23623    3.7700864    1.8409436    1.1728247    172.56585     183.0414     9.962894     314694.9 
     193            0   -128062.16    48.236049    67.308612   -38.835241    116.23478    3.7731102    1.8412631    1.1735075    172.56585     183.0414     9.962894     314694.9 
     194            0   -128062.16    48.233391     67.30612    -38.83961    116.23366    3.7756145    1.8411736    1.1734257    172.56585     183.0414     9.962894     314694.9 
     195            0   -128062.16    48.234378     67.30546   -38.837804    116.23548    3.7770528     1.840659     1.173648    172.56585     183.0414     9.962894     314694.9 
     196            0   -128062.16    48.235801    67.305711   -38.835693    116.23738    3.7768097    1.8409704    1.1725763    172.56585     183.0414     9.962894     314694.9 
     197            0   -128062.16     48.23554    67.305958   -38.836911    116.23757    3.7769939     1.840298    1.1725617    172.56585     183.0414     9.962894     314694.9 
     198            0   -128062.16    48.236081     67.30531   -38.835888    116.23882    3.7789327    1.8401937    1.1728862    172.56585     183.0414     9.962894     314694.9 
     199            0   -128062.16    48.235777    67.304161   -38.835804    116.23897    3.7801662    1.8406715    1.1731089    172.56585     183.0414     9.962894     314694.9 
     200            0   -128062.16    48.235409    67.303418    -38.83655    116.23936    3.7794455    1.8410204    1.1734126    172.56585     183.0414     9.962894     314694.9 
Loop time of 9.23498 on 1 procs for 100 steps with 28800 atoms

98.5% CPU use with 1 MPI tasks x no OpenMP threads

Minimization stats:
  Stopping criterion = max iterations
  Energy initial, next-to-last, final = 
     -128062.017075682  -128062.162782863  -128062.162784329
  Force two-norm initial, final = 1.1156917 0.0040769803
  Force max component initial, final = 0.020090028 0.00010683770
  Final line search alpha, max atom move = 1.0000000 0.00010683770
  Iterations, force evaluations = 100 200

MPI task timing breakdown:
Section |  min time  |  avg time  |  max time  |%varavg| %total
---------------------------------------------------------------
Pair    | 8.975      | 8.975      | 8.975      |   0.0 | 97.18
Neigh   | 0          | 0          | 0          |   0.0 |  0.00
Comm    | 0.051553   | 0.051553   | 0.051553   |   0.0 |  0.56
Output  | 0.10943    | 0.10943    | 0.10943    |   0.0 |  1.18
Modify  | 0          | 0          | 0          |   0.0 |  0.00
Other   |            | 0.09903    |            |       |  1.07

Nlocal:        28800.0 ave       28800 max       28800 min
Histogram: 1 0 0 0 0 0 0 0 0 0
Nghost:        55590.0 ave       55590 max       55590 min
Histogram: 1 0 0 0 0 0 0 0 0 0
Neighs:    2.53440e+06 ave  2.5344e+06 max  2.5344e+06 min
Histogram: 1 0 0 0 0 0 0 0 0 0

Total # of neighbors = 2534400
Ave neighs/atom = 88.000000
Neighbor list builds = 0
Dangerous builds = 0

# Obtain new stress tensor

variable tmp equal pe
variable e1 equal ${tmp}
variable e1 equal -128062.162784329
variable tmp equal press
variable p1 equal ${tmp}
variable p1 equal 48.2354091393162
variable tmp equal pxx
variable pxx1 equal ${tmp}
variable pxx1 equal 67.3034183045582
variable tmp equal pyy
variable pyy1 equal ${tmp}
variable pyy1 equal -38.8365504027945
variable tmp equal pzz
variable pzz1 equal ${tmp}
variable pzz1 equal 116.239359516185
variable tmp equal pxy
variable pxy1 equal ${tmp}
variable pxy1 equal 3.77944554106726
variable tmp equal pxz
variable pxz1 equal ${tmp}
variable pxz1 equal 1.84102040200312
variable tmp equal pyz
variable pyz1 equal ${tmp}
variable pyz1 equal 1.17341255458504

# Compute elastic constant from pressure tensor

variable C1pos equal ${d1}
variable C1pos equal 958.021878229829
variable C2pos equal ${d2}
variable C2pos equal 609.95877828384
variable C3pos equal ${d3}
variable C3pos equal 195.959942180299
variable C4pos equal ${d4}
variable C4pos equal 2.237948931034
variable C5pos equal ${d5}
variable C5pos equal 15.943442120248
variable C6pos equal ${d6}
variable C6pos equal -148.635723347096

# Combine positive and negative

variable C1${dir} equal 0.5*(${C1neg}+${C1pos})
variable C11 equal 0.5*(${C1neg}+${C1pos})
variable C11 equal 0.5*(-309.221867472709+${C1pos})
variable C11 equal 0.5*(-309.221867472709+958.021878229829)
variable C2${dir} equal 0.5*(${C2neg}+${C2pos})
variable C21 equal 0.5*(${C2neg}+${C2pos})
variable C21 equal 0.5*(-414.33388307593+${C2pos})
variable C21 equal 0.5*(-414.33388307593+609.95877828384)
variable C3${dir} equal 0.5*(${C3neg}+${C3pos})
variable C31 equal 0.5*(${C3neg}+${C3pos})
variable C31 equal 0.5*(53.5136478075003+${C3pos})
variable C31 equal 0.5*(53.5136478075003+195.959942180299)
variable C4${dir} equal 0.5*(${C4neg}+${C4pos})
variable C41 equal 0.5*(${C4neg}+${C4pos})
variable C41 equal 0.5*(-2.233751957946+${C4pos})
variable C41 equal 0.5*(-2.233751957946+2.237948931034)
variable C5${dir} equal 0.5*(${C5neg}+${C5pos})
variable C51 equal 0.5*(${C5neg}+${C5pos})
variable C51 equal 0.5*(-15.942947587566+${C5pos})
variable C51 equal 0.5*(-15.942947587566+15.943442120248)
variable C6${dir} equal 0.5*(${C6neg}+${C6pos})
variable C61 equal 0.5*(${C6neg}+${C6pos})
variable C61 equal 0.5*(224.60360129424+${C6pos})
variable C61 equal 0.5*(224.60360129424+-148.635723347096)

# Delete dir to make sure it is not reused

variable dir delete

# uyy Perturbation

variable dir equal 2
include displace.mod
# NOTE: This script should not need to be
# modified. See in.elastic for more info.
#
# Find which reference length to use

if "${dir} == 1" then    "variable len0 equal ${lx0}"
if "${dir} == 2" then    "variable len0 equal ${ly0}"
variable len0 equal ${ly0}
variable len0 equal 183.041404874977
if "${dir} == 3" then    "variable len0 equal ${lz0}"
if "${dir} == 4" then    "variable len0 equal ${lz0}"
if "${dir} == 5" then    "variable len0 equal ${lz0}"
if "${dir} == 6" then    "variable len0 equal ${ly0}"

# Reset box and simulation parameters

clear
box tilt large
read_restart restart.equil
Reading restart file ...
  restart file = 27 Oct 2021, LAMMPS = 27 Oct 2021
  restoring atom style atomic from restart
  triclinic box = (0.16597440 0.17211010 0.0096775243) to (172.73165 183.21351 9.9725715) with tilt (0.0000000 0.0000000 0.0000000)
  1 by 1 by 1 MPI processor grid
  pair style eam/alloy stores no restart info
  28800 atoms
  read_restart CPU = 0.002 seconds
include potential.mod
# NOTE: This script can be modified for different pair styles
# See in.elastic for more info.

# Choose potential
#pair_style	sw
#pair_coeff * * Si.sw Si
pair_style	eam/alloy
pair_coeff	* * NiCo-lammps-2014.alloy Ni Co

# Setup neighbor style
neighbor 1.0 nsq
neigh_modify once no every 1 delay 0 check yes

# Setup minimization style
min_style	     cg
min_modify	     dmax ${dmax} line quadratic
min_modify	     dmax 0.01 line quadratic

# Setup output
thermo		1
thermo_style custom step temp pe press pxx pyy pzz pxy pxz pyz lx ly lz vol
thermo_modify norm no

# Negative deformation

variable delta equal -${up}*${len0}
variable delta equal -1e-06*${len0}
variable delta equal -1e-06*183.041404874977
variable deltaxy equal -${up}*xy
variable deltaxy equal -1e-06*xy
variable deltaxz equal -${up}*xz
variable deltaxz equal -1e-06*xz
variable deltayz equal -${up}*yz
variable deltayz equal -1e-06*yz
if "${dir} == 1" then    "change_box all x delta 0 ${delta} xy delta ${deltaxy} xz delta ${deltaxz} remap units box"
if "${dir} == 2" then    "change_box all y delta 0 ${delta} yz delta ${deltayz} remap units box"
change_box all y delta 0 ${delta} yz delta ${deltayz} remap units box
change_box all y delta 0 -0.000183041404874977 yz delta ${deltayz} remap units box
change_box all y delta 0 -0.000183041404874977 yz delta -0 remap units box
Changing box ...
  triclinic box = (0.16597440 0.17211010 0.0096775243) to (172.73165 183.21333 9.9725715) with tilt (0.0000000 0.0000000 0.0000000)
  triclinic box = (0.16597440 0.17211010 0.0096775243) to (172.73165 183.21333 9.9725715) with tilt (0.0000000 0.0000000 0.0000000)
if "${dir} == 3" then    "change_box all z delta 0 ${delta} remap units box"
if "${dir} == 4" then    "change_box all yz delta ${delta} remap units box"
if "${dir} == 5" then    "change_box all xz delta ${delta} remap units box"
if "${dir} == 6" then    "change_box all xy delta ${delta} remap units box"

# Relax atoms positions

minimize ${etol} ${ftol} ${maxiter} ${maxeval}
minimize 0 ${ftol} ${maxiter} ${maxeval}
minimize 0 1e-10 ${maxiter} ${maxeval}
minimize 0 1e-10 100 ${maxeval}
minimize 0 1e-10 100 1000
Neighbor list info ...
  update every 1 steps, delay 0 steps, check yes
  max neighbors/atom: 2000, page size: 100000
  master list distance cutoff = 7.5
  ghost atom cutoff = 7.5
[...]
     154            0   -128062.16    50.072494    70.210574   -37.840325    117.84723    3.3775576    1.8383208    1.1705036    172.56568     183.0414     9.962894    314694.58 
     155            0   -128062.16    50.075148    70.210646   -37.835992    117.85079    3.3780843    1.8390339    1.1704016    172.56568     183.0414     9.962894    314694.58 
     156            0   -128062.16    50.075103    70.211498   -37.835553    117.84937    3.3803101    1.8380155    1.1723984    172.56568     183.0414     9.962894    314694.58 
     157            0   -128062.16    50.073501    70.211608   -37.838062    117.84696    3.3798098    1.8382618    1.1723637    172.56568     183.0414     9.962894    314694.58 
     158            0   -128062.16    50.070337    70.208064   -37.842311    117.84526    3.3771081    1.8390882    1.1697394    172.56568     183.0414     9.962894    314694.58 
     159            0   -128062.16     50.07242    70.209529   -37.839526    117.84726    3.3770595    1.8395103    1.1703041    172.56568     183.0414     9.962894    314694.58 
     160            0   -128062.16    50.077905    70.218188   -37.834497    117.85003    3.3778104    1.8391028    1.1722425    172.56568     183.0414     9.962894    314694.58 
     161            0   -128062.16    50.078876    70.221562    -37.83476    117.84982      3.37782    1.8385254    1.1721125    172.56568     183.0414     9.962894    314694.58 
     162            0   -128062.16    50.077744    70.218669   -37.836456    117.85102    3.3794012    1.8393224    1.1715746    172.56568     183.0414     9.962894    314694.58 
     163            0   -128062.16    50.078666     70.21886   -37.836541    117.85368    3.3801147    1.8398783    1.1712562    172.56568     183.0414     9.962894    314694.58 
     164            0   -128062.16    50.079891    70.218886   -37.835486    117.85627     3.381305    1.8388321    1.1718084    172.56568     183.0414     9.962894    314694.58 
     165            0   -128062.16    50.081703    70.221198   -37.834354    117.85826    3.3824623    1.8399199    1.1718599    172.56568     183.0414     9.962894    314694.58 
     166            0   -128062.16     50.08426    70.225381   -37.833127    117.86053    3.3819966     1.839873    1.1719241    172.56568     183.0414     9.962894    314694.58 
     167            0   -128062.16    50.083199    70.223306   -37.834917    117.86121    3.3830097    1.8382952    1.1714187    172.56568     183.0414     9.962894    314694.58 
     168            0   -128062.16    50.079887    70.218109     -37.8378    117.85935    3.3847048    1.8384062    1.1712556    172.56568     183.0414     9.962894    314694.58 
     169            0   -128062.16     50.07971    70.216259   -37.837671    117.86054    3.3856551    1.8390069    1.1722925    172.56568     183.0414     9.962894    314694.58 
     170            0   -128062.16    50.081779    70.218183   -37.836449     117.8636    3.3873132    1.8400407    1.1726894    172.56568     183.0414     9.962894    314694.58 
     171            0   -128062.16    50.079912    70.216733   -37.839265    117.86227     3.388372    1.8405254    1.1720927    172.56568     183.0414     9.962894    314694.58 
     172            0   -128062.16    50.076846     70.21293   -37.842728    117.86034    3.3882603    1.8396972    1.1715992    172.56568     183.0414     9.962894    314694.58 
     173            0   -128062.16    50.074114     70.20842   -37.844536    117.85846    3.3884568    1.8384081    1.1714389    172.56568     183.0414     9.962894    314694.58 
     174            0   -128062.16    50.071047    70.205003   -37.847668    117.85581    3.3891257    1.8386168    1.1718106    172.56568     183.0414     9.962894    314694.58 
     175            0   -128062.16    50.071403    70.205409   -37.847886    117.85669    3.3894174     1.840171    1.1723099    172.56568     183.0414     9.962894    314694.58 
     176            0   -128062.16    50.072513    70.206498   -37.846628    117.85767    3.3891834    1.8404172    1.1725815    172.56568     183.0414     9.962894    314694.58 
     177            0   -128062.16     50.06997    70.203516   -37.849361    117.85575    3.3894688    1.8403967    1.1721577    172.56568     183.0414     9.962894    314694.58 
     178            0   -128062.16     50.06828    70.200445   -37.851336    117.85573    3.3907709    1.8399072    1.1720078    172.56568     183.0414     9.962894    314694.58 
     179            0   -128062.16     50.06904    70.199993   -37.850317    117.85745    3.3916686    1.8390309    1.1722637    172.56568     183.0414     9.962894    314694.58 
     180            0   -128062.16    50.070479    70.200358     -37.8485    117.85958    3.3926855    1.8406334    1.1724613    172.56568     183.0414     9.962894    314694.58 
     181            0   -128062.16     50.07129    70.199857   -37.847155    117.86117    3.3933066    1.8416746    1.1727392    172.56568     183.0414     9.962894    314694.58 
     182            0   -128062.16    50.071771    70.199901   -37.847203    117.86261    3.3936215    1.8400718    1.1725782    172.56568     183.0414     9.962894    314694.58 
     183            0   -128062.16    50.070052    70.196265   -37.848538    117.86243    3.3966094    1.8392453    1.1721693    172.56568     183.0414     9.962894    314694.58 
     184            0   -128062.16    50.067506    70.192016   -37.850657    117.86116    3.4002984    1.8396368    1.1723249    172.56568     183.0414     9.962894    314694.58 
     185            0   -128062.16    50.067979    70.191967   -37.851128     117.8631    3.4019931    1.8406253    1.1724592    172.56568     183.0414     9.962894    314694.58 
     186            0   -128062.16    50.069363    70.191609   -37.849876    117.86636    3.4045914    1.8409969    1.1734199    172.56568     183.0414     9.962894    314694.58 
     187            0   -128062.16    50.066852    70.186432   -37.850547    117.86467    3.4071223    1.8402736    1.1738123    172.56568     183.0414     9.962894    314694.58 
     188            0   -128062.16    50.064065    70.182652   -37.852938    117.86248    3.4104717    1.8409711    1.1719063    172.56568     183.0414     9.962894    314694.58 
     189            0   -128062.16    50.062984     70.18048   -37.854215    117.86269    3.4158764    1.8405043    1.1723013    172.56568     183.0414     9.962894    314694.58 
     190            0   -128062.16    50.062302    70.178983   -37.855007    117.86293    3.4183193    1.8394282    1.1729362    172.56568     183.0414     9.962894    314694.58 
     191            0   -128062.16    50.062545    70.179458   -37.855218    117.86339    3.4185798    1.8396449    1.1727089    172.56568     183.0414     9.962894    314694.58 
     192            0   -128062.16    50.062415    70.178111   -37.854395    117.86353    3.4202065    1.8409337    1.1728403    172.56568     183.0414     9.962894    314694.58 
     193            0   -128062.16    50.059271    70.172773   -37.857033    117.86207    3.4232296    1.8412532    1.1735229    172.56568     183.0414     9.962894    314694.58 
     194            0   -128062.16    50.056612    70.170278   -37.861403    117.86096    3.4257355    1.8411636    1.1734415    172.56568     183.0414     9.962894    314694.58 
     195            0   -128062.16    50.057598    70.169615   -37.859597    117.86278    3.4271755    1.8406492     1.173664    172.56568     183.0414     9.962894    314694.58 
     196            0   -128062.16    50.059021    70.169867   -37.857486    117.86468    3.4269318    1.8409607    1.1725921    172.56568     183.0414     9.962894    314694.58 
     197            0   -128062.16    50.058761    70.170117   -37.858703    117.86487    3.4271146     1.840288    1.1725774    172.56568     183.0414     9.962894    314694.58 
     198            0   -128062.16    50.059303     70.16947    -37.85768    117.86612    3.4290527    1.8401838    1.1729019    172.56568     183.0414     9.962894    314694.58 
     199            0   -128062.16    50.058998    70.168319   -37.857596    117.86627     3.430287    1.8406616    1.1731247    172.56568     183.0414     9.962894    314694.58 
     200            0   -128062.16    50.058629    70.167575   -37.858343    117.86666    3.4295674    1.8410107    1.1734283    172.56568     183.0414     9.962894    314694.58 
Loop time of 9.22953 on 1 procs for 100 steps with 28800 atoms

97.9% CPU use with 1 MPI tasks x no OpenMP threads

Minimization stats:
  Stopping criterion = max iterations
  Energy initial, next-to-last, final = 
     -128062.017061276  -128062.162770067  -128062.162771536
  Force two-norm initial, final = 1.1156913 0.0040771447
  Force max component initial, final = 0.020090549 0.00010696625
  Final line search alpha, max atom move = 1.0000000 0.00010696625
  Iterations, force evaluations = 100 200

MPI task timing breakdown:
Section |  min time  |  avg time  |  max time  |%varavg| %total
---------------------------------------------------------------
Pair    | 8.9699     | 8.9699     | 8.9699     |   0.0 | 97.19
Neigh   | 0          | 0          | 0          |   0.0 |  0.00
Comm    | 0.050388   | 0.050388   | 0.050388   |   0.0 |  0.55
Output  | 0.10884    | 0.10884    | 0.10884    |   0.0 |  1.18
Modify  | 0          | 0          | 0          |   0.0 |  0.00
Other   |            | 0.1004     |            |       |  1.09

Nlocal:        28800.0 ave       28800 max       28800 min
Histogram: 1 0 0 0 0 0 0 0 0 0
Nghost:        55590.0 ave       55590 max       55590 min
Histogram: 1 0 0 0 0 0 0 0 0 0
Neighs:    2.53440e+06 ave  2.5344e+06 max  2.5344e+06 min
Histogram: 1 0 0 0 0 0 0 0 0 0

Total # of neighbors = 2534400
Ave neighs/atom = 88.000000
Neighbor list builds = 0
Dangerous builds = 0

# Obtain new stress tensor

variable tmp equal pe
variable e1 equal ${tmp}
variable e1 equal -128062.162771536
variable tmp equal press
variable p1 equal ${tmp}
variable p1 equal 50.0586294959507
variable tmp equal pxx
variable pxx1 equal ${tmp}
variable pxx1 equal 70.1675751766002
variable tmp equal pyy
variable pyy1 equal ${tmp}
variable pyy1 equal -37.8583431870844
variable tmp equal pzz
variable pzz1 equal ${tmp}
variable pzz1 equal 117.866656498336
variable tmp equal pxy
variable pxy1 equal ${tmp}
variable pxy1 equal 3.4295674279403
variable tmp equal pxz
variable pxz1 equal ${tmp}
variable pxz1 equal 1.84101067960702
variable tmp equal pyz
variable pyz1 equal ${tmp}
variable pyz1 equal 1.17342832534368

# Compute elastic constant from pressure tensor

variable C1pos equal ${d1}
variable C1pos equal 671.60619102563
variable C2pos equal ${d2}
variable C2pos equal 512.13805671283
variable C3pos equal ${d3}
variable C3pos equal 33.2302439651997
variable C4pos equal ${d4}
variable C4pos equal 2.23637185517001
variable C5pos equal ${d5}
variable C5pos equal 15.944414359858
variable C6pos equal ${d6}
variable C6pos equal -113.6479120344

# Combine positive and negative

variable C1${dir} equal 0.5*(${C1neg}+${C1pos})
variable C16 equal 0.5*(${C1neg}+${C1pos})
variable C16 equal 0.5*(-595.63994597917+${C1pos})
variable C16 equal 0.5*(-595.63994597917+671.60619102563)
variable C2${dir} equal 0.5*(${C2neg}+${C2pos})
variable C26 equal 0.5*(${C2neg}+${C2pos})
variable C26 equal 0.5*(-512.15474694027+${C2pos})
variable C26 equal 0.5*(-512.15474694027+512.13805671283)
variable C3${dir} equal 0.5*(${C3neg}+${C3pos})
variable C36 equal 0.5*(${C3neg}+${C3pos})
variable C36 equal 0.5*(-109.2170420408+${C3pos})
variable C36 equal 0.5*(-109.2170420408+33.2302439651997)
variable C4${dir} equal 0.5*(${C4neg}+${C4pos})
variable C46 equal 0.5*(${C4neg}+${C4pos})
variable C46 equal 0.5*(-2.23532927308399+${C4pos})
variable C46 equal 0.5*(-2.23532927308399+2.23637185517001)
variable C5${dir} equal 0.5*(${C5neg}+${C5pos})
variable C56 equal 0.5*(${C5neg}+${C5pos})
variable C56 equal 0.5*(-15.941975581834+${C5pos})
variable C56 equal 0.5*(-15.941975581834+15.944414359858)
variable C6${dir} equal 0.5*(${C6neg}+${C6pos})
variable C66 equal 0.5*(${C6neg}+${C6pos})
variable C66 equal 0.5*(259.591208198424+${C6pos})
variable C66 equal 0.5*(259.591208198424+-113.6479120344)

# Delete dir to make sure it is not reused

variable dir delete

# Output final values

variable C11all equal ${C11}
variable C11all equal 324.40000537856
variable C22all equal ${C22}
variable C22all equal 351.19181397008
variable C33all equal ${C33}
variable C33all equal 324.466763789049

variable C12all equal 0.5*(${C12}+${C21})
variable C12all equal 0.5*(97.8232260226+${C21})
variable C12all equal 0.5*(97.8232260226+97.812447603955)
variable C13all equal 0.5*(${C13}+${C31})
variable C13all equal 0.5*(124.732097247349+${C31})
variable C13all equal 0.5*(124.732097247349+124.7367949939)
variable C23all equal 0.5*(${C23}+${C32})
variable C23all equal 0.5*(97.836755817285+${C32})
variable C23all equal 0.5*(97.836755817285+97.8522940293004)

variable C44all equal ${C44}
variable C44all equal 72.9537554652311
variable C55all equal ${C55}
variable C55all equal 99.8449013418405
variable C66all equal ${C66}
variable C66all equal 72.971648082012

variable C14all equal 0.5*(${C14}+${C41})
variable C14all equal 0.5*(0.00198253696453321+${C41})
variable C14all equal 0.5*(0.00198253696453321+0.00209848654399991)
variable C15all equal 0.5*(${C15}+${C51})
variable C15all equal 0.5*(-0.000124802704533522+${C51})
variable C15all equal 0.5*(-0.000124802704533522+0.000247266340999808)
variable C16all equal 0.5*(${C16}+${C61})
variable C16all equal 0.5*(37.98312252323+${C61})
variable C16all equal 0.5*(37.98312252323+37.983938973572)

variable C24all equal 0.5*(${C24}+${C42})
variable C24all equal 0.5*(0.00155866713998876+${C42})
variable C24all equal 0.5*(0.00155866713998876+0.00179149270700507)
variable C25all equal 0.5*(${C25}+${C52})
variable C25all equal 0.5*(-1.32032750457256e-05+${C52})
variable C25all equal 0.5*(-1.32032750457256e-05+0.000173119639500285)
variable C26all equal 0.5*(${C26}+${C62})
variable C26all equal 0.5*(-0.00834511371999724+${C62})
variable C26all equal 0.5*(-0.00834511371999724+-0.00831987606500206)

variable C34all equal 0.5*(${C34}+${C43})
variable C34all equal 0.5*(-0.000310341799547587+${C43})
variable C34all equal 0.5*(-0.000310341799547587+-0.000302665860995033)
variable C35all equal 0.5*(${C35}+${C53})
variable C35all equal 0.5*(0.00100278435015611+${C53})
variable C35all equal 0.5*(0.00100278435015611+0.000993877625000472)
variable C36all equal 0.5*(${C36}+${C63})
variable C36all equal 0.5*(-37.9933990378001+${C63})
variable C36all equal 0.5*(-37.9933990378001+-37.992982664715)

variable C45all equal 0.5*(${C45}+${C54})
variable C45all equal 0.5*(-37.9955059675259+${C54})
variable C45all equal 0.5*(-37.9955059675259+-37.9954981148165)
variable C46all equal 0.5*(${C46}+${C64})
variable C46all equal 0.5*(0.000521291043009908+${C64})
variable C46all equal 0.5*(0.000521291043009908+0.000337614515501627)
variable C56all equal 0.5*(${C56}+${C65})
variable C56all equal 0.5*(0.00121938901199936+${C65})
variable C56all equal 0.5*(0.00121938901199936+0.00121697948199539)

# Average moduli for cubic crystals

variable C11cubic equal (${C11all}+${C22all}+${C33all})/3.0
variable C11cubic equal (324.40000537856+${C22all}+${C33all})/3.0
variable C11cubic equal (324.40000537856+351.19181397008+${C33all})/3.0
variable C11cubic equal (324.40000537856+351.19181397008+324.466763789049)/3.0
variable C12cubic equal (${C12all}+${C13all}+${C23all})/3.0
variable C12cubic equal (97.8178368132775+${C13all}+${C23all})/3.0
variable C12cubic equal (97.8178368132775+124.734446120625+${C23all})/3.0
variable C12cubic equal (97.8178368132775+124.734446120625+97.8445249232927)/3.0
variable C44cubic equal (${C44all}+${C55all}+${C66all})/3.0
variable C44cubic equal (72.9537554652311+${C55all}+${C66all})/3.0
variable C44cubic equal (72.9537554652311+99.8449013418405+${C66all})/3.0
variable C44cubic equal (72.9537554652311+99.8449013418405+72.971648082012)/3.0

variable bulkmodulus equal (${C11cubic}+2*${C12cubic})/3.0
variable bulkmodulus equal (333.352861045896+2*${C12cubic})/3.0
variable bulkmodulus equal (333.352861045896+2*106.798935952398)/3.0
variable shearmodulus1 equal ${C44cubic}
variable shearmodulus1 equal 81.9234349630279
variable shearmodulus2 equal (${C11cubic}-${C12cubic})/2.0
variable shearmodulus2 equal (333.352861045896-${C12cubic})/2.0
variable shearmodulus2 equal (333.352861045896-106.798935952398)/2.0
variable poissonratio equal 1.0/(1.0+${C11cubic}/${C12cubic})
variable poissonratio equal 1.0/(1.0+333.352861045896/${C12cubic})
variable poissonratio equal 1.0/(1.0+333.352861045896/106.798935952398)

# For Stillinger-Weber silicon, the analytical results
# are known to be (E. R. Cowley, 1988):
#               C11 = 151.4 GPa
#               C12 = 76.4 GPa
#               C44 = 56.4 GPa

print "========================================="
=========================================
print "Components of the Elastic Constant Tensor"
Components of the Elastic Constant Tensor
print "========================================="
=========================================

print "Elastic Constant C11all = ${C11all} ${cunits}"
Elastic Constant C11all = 324.40000537856 GPa
print "Elastic Constant C22all = ${C22all} ${cunits}"
Elastic Constant C22all = 351.19181397008 GPa
print "Elastic Constant C33all = ${C33all} ${cunits}"
Elastic Constant C33all = 324.466763789049 GPa

print "Elastic Constant C12all = ${C12all} ${cunits}"
Elastic Constant C12all = 97.8178368132775 GPa
print "Elastic Constant C13all = ${C13all} ${cunits}"
Elastic Constant C13all = 124.734446120625 GPa
print "Elastic Constant C23all = ${C23all} ${cunits}"
Elastic Constant C23all = 97.8445249232927 GPa

print "Elastic Constant C44all = ${C44all} ${cunits}"
Elastic Constant C44all = 72.9537554652311 GPa
print "Elastic Constant C55all = ${C55all} ${cunits}"
Elastic Constant C55all = 99.8449013418405 GPa
print "Elastic Constant C66all = ${C66all} ${cunits}"
Elastic Constant C66all = 72.971648082012 GPa

print "Elastic Constant C14all = ${C14all} ${cunits}"
Elastic Constant C14all = 0.00204051175426656 GPa
print "Elastic Constant C15all = ${C15all} ${cunits}"
Elastic Constant C15all = 6.1231818233143e-05 GPa
print "Elastic Constant C16all = ${C16all} ${cunits}"
Elastic Constant C16all = 37.983530748401 GPa

print "Elastic Constant C24all = ${C24all} ${cunits}"
Elastic Constant C24all = 0.00167507992349692 GPa
print "Elastic Constant C25all = ${C25all} ${cunits}"
Elastic Constant C25all = 7.99581822272797e-05 GPa
print "Elastic Constant C26all = ${C26all} ${cunits}"
Elastic Constant C26all = -0.00833249489249965 GPa

print "Elastic Constant C34all = ${C34all} ${cunits}"
Elastic Constant C34all = -0.00030650383027131 GPa
print "Elastic Constant C35all = ${C35all} ${cunits}"
Elastic Constant C35all = 0.000998330987578291 GPa
print "Elastic Constant C36all = ${C36all} ${cunits}"
Elastic Constant C36all = -37.9931908512576 GPa

print "Elastic Constant C45all = ${C45all} ${cunits}"
Elastic Constant C45all = -37.9955020411712 GPa
print "Elastic Constant C46all = ${C46all} ${cunits}"
Elastic Constant C46all = 0.000429452779255768 GPa
print "Elastic Constant C56all = ${C56all} ${cunits}"
Elastic Constant C56all = 0.00121818424699738 GPa

print "========================================="
=========================================
print "Average properties for a cubic crystal"
Average properties for a cubic crystal
print "========================================="
=========================================

print "Bulk Modulus = ${bulkmodulus} ${cunits}"
Bulk Modulus = 182.316910983564 GPa
print "Shear Modulus 1 = ${shearmodulus1} ${cunits}"
Shear Modulus 1 = 81.9234349630279 GPa
print "Shear Modulus 2 = ${shearmodulus2} ${cunits}"
Shear Modulus 2 = 113.276962546749 GPa
print "Poisson Ratio = ${poissonratio}"
Poisson Ratio = 0.242641144897591
Total wall time: 0:03:04
