LAMMPS (27 Oct 2021)
# Compute elastic constant tensor for a crystal
#
# Written by Aidan Thompson (Sandia, athomps@sandia.gov)
#
#  This script uses the following three include files.
#
#   init.mod      (must be modified for different crystal structures)
# 	       	  Define units, deformation parameters and initial
#		  configuration of the atoms and simulation cell.
#
#
#   potential.mod    (must be modified for different pair styles)
# 		     Define pair style and other attributes
#		     not stored in restart file
#
#
#   displace.mod    (displace.mod should not need to be modified)
# 		    Perform positive and negative box displacements
# 		    in direction ${dir} and size ${up}.
# 		    It uses the resultant changes
#		    in stress to compute one
# 		    row of the elastic stiffness tensor
#
#		    Inputs variables:
#		    	   dir = the Voigt deformation component
#		    		    (1,2,3,4,5,6)
#		    Global constants:
#       	    	   up = the deformation magnitude (strain units)
#       		   cfac = conversion from LAMMPS pressure units to
#               	   output units for elastic constants
#
#
#  To run this on a different system, it should only be necessary to
#  modify the files init.mod and potential.mod. In order to calculate
#  the elastic constants correctly, care must be taken to specify
#  the correct units in init.mod (units, cfac and cunits). It is also
#  important to verify that the minimization of energy w.r.t atom
#  positions in the deformed cell is fully converged.
#  One indication of this is that the elastic constants are insensitive
#  to the choice of the variable ${up} in init.mod. Another is to check
#  the final max and two-norm forces reported in the log file. If you know
#  that minimization is not required, you can set maxiter = 0.0 in
#  init.mod.
#

include init.mod
# NOTE: This script can be modified for different atomic structures,
# units, etc. See in.elastic for more info.
#

# Define the finite deformation size. Try several values of this
# variable to verify that results do not depend on it.
variable up equal 1.0e-6

# Define the amount of random jiggle for atoms
# This prevents atoms from staying on saddle points
variable atomjiggle equal 1.0e-5

# Uncomment one of these blocks, depending on what units
# you are using in LAMMPS and for output

# metal units, elastic constants in eV/A^3
#units		metal
#variable cfac equal 6.2414e-7
#variable cunits string eV/A^3

# metal units, elastic constants in GPa
units		metal
variable cfac equal 1.0e-4
variable cunits string GPa

# real units, elastic constants in GPa
#units		real
#variable cfac equal 1.01325e-4
#variable cunits string GPa

# Define minimization parameters
variable etol equal 0.0
variable ftol equal 1.0e-10
variable maxiter equal 100
variable maxeval equal 1000
variable dmax equal 1.0e-2

# generate the box and atom positions using a diamond lattice
#variable a equal 5.43
read_data Ni90-Co10/2.data
Reading data file ...
  triclinic box = (0.0000000 0.0000000 0.0000000) to (172.89763 183.38563 9.9822491) with tilt (0.0000000 0.0000000 0.0000000)
  1 by 1 by 1 MPI processor grid
  reading atoms ...
  28800 atoms
  reading velocities ...
  28800 velocities
  read_data CPU = 0.093 seconds
#boundary	p p p

#lattice         diamond $a
#region		box prism 0 2.0 0 3.0 0 4.0 0.0 0.0 0.0
#create_box	1 box
#create_atoms	1 box

# Need to set mass to something, just to satisfy LAMMPS
mass 1 1.0e-20

include potential.mod #NiCo-lammps-2014.alloy #
# NOTE: This script can be modified for different pair styles
# See in.elastic for more info.

# Choose potential
#pair_style	sw
#pair_coeff * * Si.sw Si
pair_style	eam/alloy
pair_coeff	* * NiCo-lammps-2014.alloy Ni Co

# Setup neighbor style
neighbor 1.0 nsq
neigh_modify once no every 1 delay 0 check yes

# Setup minimization style
min_style	     cg
min_modify	     dmax ${dmax} line quadratic
min_modify	     dmax 0.01 line quadratic

# Setup output
thermo		1
thermo_style custom step temp pe press pxx pyy pzz pxy pxz pyz lx ly lz vol
thermo_modify norm no

# Compute initial state
fix 3 all box/relax  aniso 0.0
minimize ${etol} ${ftol} ${maxiter} ${maxeval}
minimize 0 ${ftol} ${maxiter} ${maxeval}
minimize 0 1e-10 ${maxiter} ${maxeval}
minimize 0 1e-10 100 ${maxeval}
minimize 0 1e-10 100 1000
Neighbor list info ...
  update every 1 steps, delay 0 steps, check yes
  max neighbors/atom: 2000, page size: 100000
  master list distance cutoff = 7.5
  ghost atom cutoff = 7.5
  1 neighbor lists, perpetual/occasional/extra = 1 0 0
  (1) pair eam/alloy, perpetual
      attributes: half, newton on
      pair build: half/nsq/newton
      stencil: none
      bin: none
Per MPI rank memory allocation (min/avg/max) = 36.13 | 36.13 | 36.13 Mbytes
Step Temp PotEng Press Pxx Pyy Pzz Pxy Pxz Pyz Lx Ly Lz Volume 
       0            0    -127980.1   -6621.6179   -6642.2655   -6633.2208   -6589.3674    6.6491175   0.47343596   0.20019677    172.89763    183.38563    9.9822491    316506.56 
       1            0   -127980.48   -6082.1454   -6102.2774    -6093.435   -6050.7237    6.8376737    0.4908351   0.20454498    172.88034    183.36731    9.9812588    316411.92 
       2            0   -127980.82   -5542.0912   -5561.6704   -5553.0396   -5511.5635    7.0453779   0.50789207   0.20870544    172.86305      183.349     9.980269    316317.31 
       3            0   -127981.13    -5001.473   -5020.4565   -5012.0484    -4971.914    7.2751714   0.52461614   0.21268058    172.84576    183.33069    9.9792798    316222.73 
       4            0   -127981.41   -4460.3139   -4478.6512   -4470.4796   -4431.8109    7.5307912   0.54101127   0.21646941    172.82847    183.31238    9.9782912    316128.21 
       5            0   -127981.66   -3918.6585   -3936.2894   -3928.3712   -3891.3149    7.8171557   0.55707216    0.2200767    172.81118    183.29408    9.9773034    316033.73 
       6            0   -127981.87   -3376.5525   -3393.4032   -3385.7601   -3350.4942    8.1410192   0.57277691   0.22349069    172.79389    183.27577    9.9763166    315939.31 
       7            0   -127982.06   -2834.0482   -2850.0255   -2842.6863   -2809.4327    8.5120066   0.58812158   0.22671008     172.7766    183.25748     9.975331    315844.95 
       8            0   -127982.21   -2291.2108   -2306.1926   -2299.1966   -2268.2433    8.9444789   0.60310404   0.22972873    172.75931    183.23919     9.974347    315750.67 
       9            0   -127982.33   -1748.1777   -1761.9947   -1755.3992   -1727.1393    9.4617432    0.6177458   0.23254953    172.74202     183.2209    9.9733652     315656.5 
      10            0   -127982.41   -1205.2056   -1217.6024   -1211.4989   -1186.5153     10.10583   0.63204858    0.2351743    172.72473    183.20263    9.9723867    315562.47 
      11            0   -127982.47   -662.85472   -673.38833   -667.94574   -647.23008    10.968101   0.64600175   0.23759886    172.70744    183.18439     9.971414    315468.68 
      12            0   -127982.49   -122.84472   -130.48053   -126.12317   -111.93045    12.333354   0.65955531   0.23981149    172.69015     183.1662    9.9704546    315375.43 
      13            0   -127982.49     11.67907    6.9119061    10.032331    18.092971    13.698211   0.66290856   0.24031212    172.68565    183.16158    9.9702317    315352.21 
      14            0    -127982.5    2.0091567    135.39622    65.729519   -195.09827    77.672842   0.66493909   0.23899553    172.67342    183.15717    9.9712299    315353.86 
      15            0   -127982.52   -20.238928   -4.3094416   -57.862604    1.4552618    14.716569   0.66286986   0.24000206    172.68518    183.16525    9.9702317    315357.68 
      16            0   -127982.52     134.5193    71.321383    215.89535    116.34116    7.3507146    0.6662909   0.24122412    172.68607    183.15146    9.9700871    315330.98 
      17            0   -127982.52    211.65728    62.357316    425.95423    146.66029 -0.018525984   0.66782271   0.24219296    172.68987    183.13926    9.9701109    315317.67 
      18            0   -127982.53   -101.81166   -353.81646    274.24078   -225.85932   -8.1580791   0.66002812   0.24178723    172.70716    183.13799    9.9708903    315371.72 
      19            0   -127982.55   -112.39748   -207.01846    15.374626   -145.54859    4.3008028   0.66092659   0.24048591    172.69613    183.15633    9.9705855    315373.51 
      20            0   -127982.55     41.81112    2.9328722    88.769189    33.731299    10.025547   0.66505328   0.24064064    172.68719    183.15704    9.9702224    315346.91 
      21            0   -127982.56   -10.450315    13.551198   -48.975188    4.0730455    17.569666   0.66417976   0.23993172    172.68418    183.16498    9.9702493    315355.92 
      22            0   -127982.57    -2.645457    165.91011    24.190269   -198.03675    83.935689   0.66688661   0.23862198    172.67085    183.15998    9.9712475    315354.54 
      23            0   -127982.59    12.800549    2.5757813    22.121006     13.70486    13.711799   0.66527682   0.24026521    172.68596    183.16073    9.9702493    315351.86 
      24            0   -127982.59   -153.43379   -127.57265   -202.24511   -130.48361    16.356254   0.66144389   0.23932525     172.6886    183.17049    9.9704717    315380.54 
      25            0   -127982.59   -341.87507   -205.97646    -556.7313   -262.91744    26.477442   0.65770056   0.23767378    172.68653    183.18883    9.9706213    315413.06 
      26            0   -127982.62    -26.06463    208.60645     -372.594     85.79366    38.769925   0.66681337   0.23811066    172.66924     183.1878    9.9699515    315358.52 
      27            0   -127982.63    37.673773    130.36181   -85.231122    67.890625    27.484266   0.66767842   0.23947805    172.67747    183.16946    9.9701259     315347.5 
      28            0   -127982.63   -42.976356   -35.263719   -44.632398   -49.032952    18.378786    0.6651945   0.23984581    172.68625    183.16337      9.97039    315361.41 
      29            0   -127982.63    30.417433    4.3536233    69.182022    17.716654    13.293375   0.66677305   0.24040387     172.6865    183.15799    9.9702687    315348.75 
      30            0   -127982.65    12.926204   -154.34092   -21.334322    214.45386   -53.191925   0.66475669   0.24160424     172.6999    183.16386    9.9692704    315351.75 
      31            0   -127982.66   -45.811291   -55.779841   -55.906001   -25.748031    10.183943   0.66558023   0.23996019    172.68794    183.16407    9.9702687    315361.85 
      32            0   -127982.66    48.874618     48.49263    48.959204    49.172021    15.666873   0.66808163   0.24023423    172.68404    183.16017    9.9701899    315345.52 
      33            0   -127982.66    169.76828    256.25268    259.40072   -6.3485504    64.964289   0.67264867   0.23986194    172.67192    183.14964    9.9708029    315324.65 
      34            0   -127982.67    -61.72833    100.73535    72.301683   -358.22202    101.75246   0.66836827   0.23827002    172.67223    183.15415    9.9718011    315364.56 
      35            0   -127982.69   -67.679359    10.411351    -65.23513    -148.2143    45.493988   0.66682858   0.23905693     172.6809    183.16389    9.9708029    315365.58 
      36            0   -127982.69     44.56832    75.649085    45.124489    12.931386    27.534476   0.66901522   0.23990581    172.68144    183.16027     9.970356    315346.21 
      37            0   -127982.69   -11.557997   -51.158819   -13.205663    29.690492   0.67205755   0.66677802   0.24031396    172.68934    183.16231    9.9700958     315355.9 
      38            0    -127982.9     2.294723   -174.06481    246.57596   -65.626978   -4.4967875   0.67182691   0.24110894    172.69844    183.14397    9.9704815    315353.14 
      39            0   -127982.92   -2.5761506   -8.4840492   -9.2053008    9.9608983    12.356262   0.67286921   0.23973236    172.68613    183.16231    9.9702199    315353.96 
      40            0   -127982.92    119.82343      263.433    170.58477   -74.547479    79.088098   0.67818969   0.23883937    172.66884    183.15406    9.9709992    315332.83 
      41            0   -127982.94   -69.713262    181.31786    7.4020447   -397.85969    124.27077   0.67537429   0.23714128    172.66528    183.15847    9.9719974     315365.5 
      42            0   -127982.96   -38.256289    82.203922   -25.831329   -171.14146    63.234011    0.6745735   0.23841216    172.67615    183.16211    9.9709992    315360.05 
      43            0   -127982.96    57.670766    69.524551    55.721707    47.766039     19.87533    0.6755581   0.23972999    172.68264    183.15994     9.970219     315343.5 
      44            0   -127982.96   -19.623785   -41.687792   -23.466816     6.283251    6.8341663   0.67323285    0.2397324    172.68802    183.16266    9.9701818    315356.84 
      45            0      -127983   -12.819863   -177.65764    233.16357   -93.965516   0.14012282   0.67373632   0.24077504    172.69788    183.14432    9.9705719    315355.59 
      46            0   -127983.01    25.550225    36.029615   0.68374435    39.937316    15.076079   0.67585388   0.23952746    172.68397    183.16266     9.970167    315348.96 
      47            0   -127983.01   -224.92103   -183.56798   -258.37983   -232.81529    25.045049   0.67010451   0.23828334    172.68926    183.17166    9.9707376    315392.16 
      48            0   -127983.02   -359.78502   -297.85788   -395.12844   -386.36872    32.399963   0.66708098   0.23755667    172.69175     183.1763    9.9710769    315415.44 
      49            0   -127983.09   -305.74005   -80.456958   -277.77063   -558.99256    105.39397   0.67248977   0.23617923    172.67534    183.16988    9.9720752    315405.97 
      50            0    -127983.1     1.848271    149.66667    18.205601   -162.32746    74.218141   0.67921071   0.23803825    172.67245    183.16044    9.9710769    315352.89 
      51            0    -127983.1   -3.6276014    -12.36288   -9.4918758    10.971952    11.445262   0.67706537   0.23938291    172.68635    183.16224    9.9702069    315353.83 
      52            0   -127983.11    233.57509    137.40353    371.50011    191.82161    5.5964794   0.68269629   0.24091491    172.68513     183.1439    9.9699816    315312.91 
      53            0   -127983.14   -110.61343   -300.15046    205.96693   -237.65675    4.1211524   0.67461204   0.24025443    172.70242    183.14243    9.9709384    315372.22 
      54            0   -127983.17    2.5821436   -4.9484626    13.818125   -1.1232319    15.096112   0.67872595   0.23923292    172.68588    183.16077    9.9702764    315352.65 
      55            0   -127983.17   -90.836954    20.551733   -266.97899   -26.083608    24.545289   0.67712326   0.23794224    172.68024    183.17747    9.9702025    315368.77 
      56            0   -127983.19    216.12236    429.72953    -92.76408    311.40164    37.931296   0.68579939    0.2382245    172.66295    183.17682    9.9695618    315315.81 
      57            0   -127983.22   -14.251012    56.160679   -67.012059   -31.901656      32.2933   0.68015457   0.23839377    172.68024    183.16596    9.9704087    315355.47 
      58            0   -127983.23    30.460225    12.333522    54.020129    25.027024    13.433841   0.68053087   0.23928039    172.68579    183.15893    9.9702267    315347.75 
      59            0   -127983.23   -61.038346   -117.36924   -21.991455   -43.754341    2.0439082   0.67787827   0.23925349    172.69183    183.16087    9.9702715    315363.54 
      60            0   -127983.24   -16.558814     -114.941   -136.06252    201.32707   -43.333913   0.67804433   0.23982951    172.69549    183.17087    9.9692733    315355.86 
      61            0   -127983.25    101.60048    118.11484    125.61712     61.06949    26.480797   0.68327972    0.2391742    172.68055    183.15652    9.9702715    315335.44 
      62            0   -127983.26   -163.78083   -113.22196   -112.74085   -265.37968    44.302903   0.67733327   0.23785372    172.68572    183.16342    9.9710443    315381.21 
      63            0   -127983.26   -361.47326   -279.20067   -298.96383   -506.25527    58.327619   0.67297555   0.23678087     172.6891     183.1692    9.9716132    315415.32 
      64            0   -127983.35   -305.95861   -38.701089   -295.76766   -583.40707    117.77942   0.67840631    0.2352072    172.67181    183.17111    9.9721997    315405.58 
      65            0   -127983.36   -15.357028    162.43629   -10.264469    -198.2429    83.333752   0.68460391   0.23707227    172.67044    183.16177    9.9712015    315355.43 
      66            0   -127983.36    27.139857     26.09939    25.744833    29.575347    15.159962   0.68344311   0.23875827    172.68461    183.16082    9.9702033     315348.1 
      67            0   -127983.36   -46.500339   -57.379549   -46.467565   -35.653901    11.752785   0.68150349   0.23856594    172.68777    183.16317    9.9702944     315360.8 
      68            0   -127983.39   -81.143745   -287.45812   -5.8197807    49.846667   -47.280963   0.67922129    0.2399626    172.70506    183.15887    9.9697184    315366.74 
      69            0    -127983.4    95.407811     31.56387    106.06513    148.59443   -6.0990006    0.6851888   0.23942051    172.68777    183.15765    9.9698191    315336.26 
      70            0   -127983.41   -92.279204   -7.7612968   -131.40291   -137.67341    40.130769   0.68218274   0.23747486    172.68131    183.16753    9.9706776    315368.63 
      71            0   -127983.41    -147.5748    67.482483   -215.34055   -294.86632    83.632522   0.68237301   0.23615524    172.67203    183.17145    9.9713014    315378.17 
      72            0   -127983.42    183.74584    475.55393    141.94703   -66.263444    117.26546   0.69196764   0.23666762    172.65474     183.1585    9.9711975    315320.99 
      73            0   -127983.44    137.37588    236.41247    185.24856   -9.5333818    61.850958   0.68925342   0.23803333    172.67203    183.15354    9.9707201    315328.95 
      74            0   -127983.45   -48.962927    4.2284354   -30.998572   -120.11864    39.089164    0.6839232    0.2377542    172.68212    183.16194    9.9706966    315361.09 
      75            0   -127983.45    5.3333501   -6.5555939   -9.4269568    31.982601    8.6009837   0.68433695   0.23852433    172.68633    183.16249    9.9701273    315351.73 
      76            0   -127983.45   0.89936898   -200.66139    241.25491   -37.895415   -14.659469   0.68329264   0.23994975    172.70055    183.14415    9.9703282    315352.48 
      77            0   -127983.49   -16.282354   -15.413979   -21.213913   -12.219172    15.216298   0.68476834   0.23820069    172.68581    183.16249    9.9702731    315355.39 
      78            0   -127983.49    120.87128    122.31319    128.75656    111.54407    17.815673   0.68827995   0.23868517    172.68133    183.15698     9.970084    315331.73 
      79            0   -127983.49    352.54416    356.27582     410.0778    291.27886    27.948779    0.6944233   0.23942909    172.67339    183.14565    9.9698959    315291.77 
      80            0   -127983.54     287.2888    309.43407     521.5895    30.842833    67.983455   0.69488095   0.23877508    172.67224    183.13502    9.9708942    315302.94 
      81            0   -127983.55   -21.403902     4.700776    101.92864   -170.84112     48.67652    0.6867923   0.23768449    172.68262    183.15335    9.9709796    315356.16 
      82            0   -127983.55    31.298023    48.626211    14.633658      30.6342    19.175497    0.6873607   0.23802182    172.68298    183.16174    9.9702149    315347.08 
      83            0   -127983.55   -40.522687   -43.085568   -61.279395   -17.203098    10.973162   0.68531157   0.23792597      172.687    183.16443    9.9702279    315359.47 
      84            0   -127983.56     26.73622   -190.41588    159.60886    111.01568   -40.602355   0.68518727   0.23988568    172.70203    183.15105    9.9697215    315347.86 
      85            0   -127987.77    83.484825    42.778933    135.19924    72.476306    9.8845675   0.74130004   0.20591541    172.68474    183.15401    9.9700317    315331.19 
      86            0   -127987.77   -17.928605   -37.579826    4.8469981   -21.052986    12.361383    0.7386018   0.20553897    172.68638    183.15949    9.9701918    315348.68 
      87            0   -127987.77   -3.5994983    15.534437   -31.159198    4.8262658    17.452663   0.73917291   0.20533261    172.68303    183.16266    9.9701344    315346.21 
      88            0   -127987.77    92.721382    109.34285     96.53909    72.282206    22.369531   0.74185532   0.20552235    172.67993    183.15717    9.9700869     315329.6 
      89            0   -127987.77   -18.070081   -89.835146    262.82955   -227.20465    41.147538   0.73814971   0.20519694    172.68855    183.14079    9.9710852     315348.7 
      90            0   -127987.82   -327.15134    -380.3051   -156.82847   -444.32045    27.383441   0.72370161   0.20157901    172.69769    183.15912    9.9712452    315402.03 
      91            0   -127987.83    13.934152     1.005881    54.818227   -14.021653     18.16513    0.7314676   0.20147826    172.68463    183.15712     9.970247    315343.16 
      92            0   -127987.83   -32.977777   -10.929718   -91.698285    3.6946707    12.624173    0.7299053   0.20110164    172.68399    183.16591    9.9700618    315351.25 
      93            0   -127987.84   -31.063243    12.506987   -157.57219    51.875471    7.9969117   0.72968775   0.20091104    172.68268    183.17076    9.9698629    315350.93 
      94            0   -127987.84     254.7284    262.82823    144.46163    356.89535   -2.2842568   0.73616105   0.20128698     172.6766    183.16003    9.9692394    315301.63 
      95            0   -127987.87    231.70986    81.039347    385.13945    228.95079   -12.405676   0.73159385   0.20039904    172.68867    183.14169    9.9696662    315305.59 
      96            0   -127987.87   -89.781194   -166.49096   -13.898984   -88.953634   0.81019012   0.72296415   0.19908816     172.6931    183.15804    9.9702729    315361.04 
      97            0   -127987.88   -73.313475   -6.3024799   -153.30136   -60.336579    25.407711   0.72406677   0.19817938    172.68157     183.1688    9.9702636     315358.2 
      98            0   -127987.88    47.492318    110.64289   -18.521703    50.355767    26.563953   0.72736057   0.19845362    172.67797    183.16375    9.9700873    315337.35 
      99            0   -127987.88    33.774051    2.3449893    89.339574     9.637589    13.926132   0.72643182   0.19892545    172.68548    183.15539    9.9701834    315339.72 
     100            0   -127987.88   -45.263001   -79.640963   -2.2221551   -53.925885    10.490396   0.72409662   0.19873355    172.68834    183.15894    9.9702564    315353.35 
Loop time of 7.44847 on 1 procs for 100 steps with 28800 atoms

98.0% CPU use with 1 MPI tasks x no OpenMP threads

Minimization stats:
  Stopping criterion = max iterations
  Energy initial, next-to-last, final = 
      -127980.10207224  -127987.876820574  -127987.877174246
  Force two-norm initial, final = 2265.7216 19.862447
  Force max component initial, final = 1312.1654 15.694577
  Final line search alpha, max atom move = 1.0483142e-05 0.00016452848
  Iterations, force evaluations = 100 143

MPI task timing breakdown:
Section |  min time  |  avg time  |  max time  |%varavg| %total
---------------------------------------------------------------
Pair    | 7.0818     | 7.0818     | 7.0818     |   0.0 | 95.08
Neigh   | 0          | 0          | 0          |   0.0 |  0.00
Comm    | 0.036308   | 0.036308   | 0.036308   |   0.0 |  0.49
Output  | 0.10731    | 0.10731    | 0.10731    |   0.0 |  1.44
Modify  | 0          | 0          | 0          |   0.0 |  0.00
Other   |            | 0.2231     |            |       |  2.99

Nlocal:        28800.0 ave       28800 max       28800 min
Histogram: 1 0 0 0 0 0 0 0 0 0
Nghost:        55590.0 ave       55590 max       55590 min
Histogram: 1 0 0 0 0 0 0 0 0 0
Neighs:    2.53440e+06 ave  2.5344e+06 max  2.5344e+06 min
Histogram: 1 0 0 0 0 0 0 0 0 0

Total # of neighbors = 2534400
Ave neighs/atom = 88.000000
Neighbor list builds = 0
Dangerous builds = 0

variable tmp equal pxx
variable pxx0 equal ${tmp}
variable pxx0 equal -79.6409626516459
variable tmp equal pyy
variable pyy0 equal ${tmp}
variable pyy0 equal -2.22215505494261
variable tmp equal pzz
variable pzz0 equal ${tmp}
variable pzz0 equal -53.9258850856455
variable tmp equal pyz
variable pyz0 equal ${tmp}
variable pyz0 equal 0.198733548681933
variable tmp equal pxz
variable pxz0 equal ${tmp}
variable pxz0 equal 0.724096618177697
variable tmp equal pxy
variable pxy0 equal ${tmp}
variable pxy0 equal 10.4903961086646

variable tmp equal lx
variable lx0 equal ${tmp}
variable lx0 equal 172.688337096475
variable tmp equal ly
variable ly0 equal ${tmp}
variable ly0 equal 183.15893910637
variable tmp equal lz
variable lz0 equal ${tmp}
variable lz0 equal 9.97025638068738

# These formulas define the derivatives w.r.t. strain components
# Constants uses $, variables use v_
variable d1 equal -(v_pxx1-${pxx0})/(v_delta/v_len0)*${cfac}
variable d1 equal -(v_pxx1--79.6409626516459)/(v_delta/v_len0)*${cfac}
variable d1 equal -(v_pxx1--79.6409626516459)/(v_delta/v_len0)*0.0001
variable d2 equal -(v_pyy1-${pyy0})/(v_delta/v_len0)*${cfac}
variable d2 equal -(v_pyy1--2.22215505494261)/(v_delta/v_len0)*${cfac}
variable d2 equal -(v_pyy1--2.22215505494261)/(v_delta/v_len0)*0.0001
variable d3 equal -(v_pzz1-${pzz0})/(v_delta/v_len0)*${cfac}
variable d3 equal -(v_pzz1--53.9258850856455)/(v_delta/v_len0)*${cfac}
variable d3 equal -(v_pzz1--53.9258850856455)/(v_delta/v_len0)*0.0001
variable d4 equal -(v_pyz1-${pyz0})/(v_delta/v_len0)*${cfac}
variable d4 equal -(v_pyz1-0.198733548681933)/(v_delta/v_len0)*${cfac}
variable d4 equal -(v_pyz1-0.198733548681933)/(v_delta/v_len0)*0.0001
variable d5 equal -(v_pxz1-${pxz0})/(v_delta/v_len0)*${cfac}
variable d5 equal -(v_pxz1-0.724096618177697)/(v_delta/v_len0)*${cfac}
variable d5 equal -(v_pxz1-0.724096618177697)/(v_delta/v_len0)*0.0001
variable d6 equal -(v_pxy1-${pxy0})/(v_delta/v_len0)*${cfac}
variable d6 equal -(v_pxy1-10.4903961086646)/(v_delta/v_len0)*${cfac}
variable d6 equal -(v_pxy1-10.4903961086646)/(v_delta/v_len0)*0.0001

displace_atoms all random ${atomjiggle} ${atomjiggle} ${atomjiggle} 87287 units box
displace_atoms all random 1e-05 ${atomjiggle} ${atomjiggle} 87287 units box
displace_atoms all random 1e-05 1e-05 ${atomjiggle} 87287 units box
displace_atoms all random 1e-05 1e-05 1e-05 87287 units box
Displacing atoms ...

# Write restart
unfix 3
write_restart restart.equil
System init for write_restart ...

# uxx Perturbation

variable dir equal 1
include displace.mod
# NOTE: This script should not need to be
# modified. See in.elastic for more info.
#
# Find which reference length to use

if "${dir} == 1" then    "variable len0 equal ${lx0}"
variable len0 equal ${lx0}
variable len0 equal 172.688337096475
if "${dir} == 2" then    "variable len0 equal ${ly0}"
if "${dir} == 3" then    "variable len0 equal ${lz0}"
if "${dir} == 4" then    "variable len0 equal ${lz0}"
if "${dir} == 5" then    "variable len0 equal ${lz0}"
if "${dir} == 6" then    "variable len0 equal ${ly0}"

# Reset box and simulation parameters

clear
box tilt large
read_restart restart.equil
Reading restart file ...
  restart file = 27 Oct 2021, LAMMPS = 27 Oct 2021
  restoring atom style atomic from restart
  triclinic box = (0.10464416 0.11334298 0.0059963384) to (172.79298 183.27228 9.9762527) with tilt (0.0000000 0.0000000 0.0000000)
  1 by 1 by 1 MPI processor grid
  pair style eam/alloy stores no restart info
  28800 atoms
  read_restart CPU = 0.004 seconds
include potential.mod
# NOTE: This script can be modified for different pair styles
# See in.elastic for more info.

# Choose potential
#pair_style	sw
#pair_coeff * * Si.sw Si
pair_style	eam/alloy
pair_coeff	* * NiCo-lammps-2014.alloy Ni Co

# Setup neighbor style
neighbor 1.0 nsq
neigh_modify once no every 1 delay 0 check yes

# Setup minimization style
min_style	     cg
min_modify	     dmax ${dmax} line quadratic
min_modify	     dmax 0.01 line quadratic

# Setup output
thermo		1
thermo_style custom step temp pe press pxx pyy pzz pxy pxz pyz lx ly lz vol
thermo_modify norm no

# Negative deformation

variable delta equal -${up}*${len0}
variable delta equal -1e-06*${len0}
variable delta equal -1e-06*172.688337096475
variable deltaxy equal -${up}*xy
variable deltaxy equal -1e-06*xy
variable deltaxz equal -${up}*xz
variable deltaxz equal -1e-06*xz
variable deltayz equal -${up}*yz
variable deltayz equal -1e-06*yz
if "${dir} == 1" then    "change_box all x delta 0 ${delta} xy delta ${deltaxy} xz delta ${deltaxz} remap units box"
change_box all x delta 0 ${delta} xy delta ${deltaxy} xz delta ${deltaxz} remap units box
change_box all x delta 0 -0.000172688337096475 xy delta ${deltaxy} xz delta ${deltaxz} remap units box
change_box all x delta 0 -0.000172688337096475 xy delta -0 xz delta ${deltaxz} remap units box
change_box all x delta 0 -0.000172688337096475 xy delta -0 xz delta -0 remap units box
Changing box ...
  triclinic box = (0.10464416 0.11334298 0.0059963384) to (172.79281 183.27228 9.9762527) with tilt (0.0000000 0.0000000 0.0000000)
  triclinic box = (0.10464416 0.11334298 0.0059963384) to (172.79281 183.27228 9.9762527) with tilt (0.0000000 0.0000000 0.0000000)
  triclinic box = (0.10464416 0.11334298 0.0059963384) to (172.79281 183.27228 9.9762527) with tilt (0.0000000 0.0000000 0.0000000)
if "${dir} == 2" then    "change_box all y delta 0 ${delta} yz delta ${deltayz} remap units box"
if "${dir} == 3" then    "change_box all z delta 0 ${delta} remap units box"
if "${dir} == 4" then    "change_box all yz delta ${delta} remap units box"
if "${dir} == 5" then    "change_box all xz delta ${delta} remap units box"
if "${dir} == 6" then    "change_box all xy delta ${delta} remap units box"

# Relax atoms positions

minimize ${etol} ${ftol} ${maxiter} ${maxeval}
minimize 0 ${ftol} ${maxiter} ${maxeval}
minimize 0 1e-10 ${maxiter} ${maxeval}
minimize 0 1e-10 100 ${maxeval}
minimize 0 1e-10 100 1000
Neighbor list info ...
  update every 1 steps, delay 0 steps, check yes
  max neighbors/atom: 2000, page size: 100000
  master list distance cutoff = 7.5
  ghost atom cutoff = 7.5
  1 neighbor lists, perpetual/occasional/extra = 1 0 0
  (1) pair eam/alloy, perpetual
      attributes: half, newton on
      pair build: half/nsq/newton
      stencil: none
      bin: none
Per MPI rank memory allocation (min/avg/max) = 36.13 | 36.13 | 36.13 Mbytes
Step Temp PotEng Press Pxx Pyy Pzz Pxy Pxz Pyz Lx Ly Lz Volume 
     100            0   -127987.88   -43.436994   -76.395099   -1.2366834   -52.679198    10.865959   0.72395077   0.19849671    172.68816    183.15894    9.9702564    315353.04 
     101            0   -127989.75   -34.710794   -61.675553    11.177713   -53.634542    7.4668512   0.10703589  -0.13444944    172.68816    183.15894    9.9702564    315353.04 
     102            0   -127989.89   -22.219383   -49.860617    22.757469      -39.555    6.6096541  -0.24037324  -0.43220598    172.68816    183.15894    9.9702564    315353.04 
     103            0   -127989.93   -27.344964   -56.669764    16.735763   -42.100891    7.4704822  -0.23463779  -0.67339347    172.68816    183.15894    9.9702564    315353.04 
     104            0   -127989.94   -27.097786   -56.565363    16.838976   -41.566969       7.4538  -0.23923566  -0.74002625    172.68816    183.15894    9.9702564    315353.04 
     105            0   -127989.95   -26.749825   -56.187727     17.32331   -41.385056    7.6555928  -0.31123275   -0.6585768    172.68816    183.15894    9.9702564    315353.04 
     106            0   -127989.95   -28.611367   -57.847776    15.542633   -43.528958    7.4332638  -0.26999283    -0.623523    172.68816    183.15894    9.9702564    315353.04 
     107            0   -127989.96   -28.249961   -57.726896    15.844406   -42.867394    7.7365461   -0.2084818  -0.62832188    172.68816    183.15894    9.9702564    315353.04 
     108            0   -127989.96   -28.103576   -57.760745    16.068241   -42.618224    8.0345191  -0.21770269  -0.67762041    172.68816    183.15894    9.9702564    315353.04 
     109            0   -127989.97   -28.647421   -58.215229     15.55246   -43.279494    7.9922077  -0.25921679  -0.70753843    172.68816    183.15894    9.9702564    315353.04 
     110            0   -127989.97   -28.494293   -58.068146    15.647676   -43.062408    7.9563219  -0.29841138  -0.70006839    172.68816    183.15894    9.9702564    315353.04 
     111            0   -127989.97   -28.307492    -57.95969     15.86596   -42.828747    8.0478072  -0.27662519  -0.67037037    172.68816    183.15894    9.9702564    315353.04 
     112            0   -127989.97   -28.385159    -58.07442    15.801617   -42.882675     8.094808  -0.23110413  -0.66749302    172.68816    183.15894    9.9702564    315353.04 
     113            0   -127989.97   -28.339978   -58.063214     15.81165   -42.768371     8.131413  -0.23002284   -0.6863271    172.68816    183.15894    9.9702564    315353.04 
     114            0   -127989.98   -28.253247   -57.998582     15.93405   -42.695208     8.274013  -0.26032714  -0.69608068    172.68816    183.15894    9.9702564    315353.04 
     115            0   -127989.98   -28.402412     -58.1872    15.788144   -42.808181    8.3396123  -0.26616464  -0.68206242    172.68816    183.15894    9.9702564    315353.04 
     116            0   -127989.98   -28.512812   -58.305325    15.657524   -42.890635    8.3180008  -0.26472689  -0.67871988    172.68816    183.15894    9.9702564    315353.04 
     117            0   -127989.98   -28.431822   -58.204588    15.752649   -42.843528    8.2905123   -0.2494422  -0.68888736    172.68816    183.15894    9.9702564    315353.04 
     118            0   -127989.98   -28.465015    -58.22316    15.714185   -42.886069    8.2769361   -0.2422863  -0.67764479    172.68816    183.15894    9.9702564    315353.04 
     119            0   -127989.98   -28.559475   -58.334497    15.633605   -42.977533    8.3200466  -0.25371949  -0.67135936    172.68816    183.15894    9.9702564    315353.04 
     120            0   -127989.98   -28.549139   -58.362002    15.664081   -42.949497    8.3856829  -0.25432763  -0.67182779    172.68816    183.15894    9.9702564    315353.04 
     121            0   -127989.98   -28.506445   -58.330368    15.693655   -42.882622    8.4021714  -0.24774248  -0.67828342    172.68816    183.15894    9.9702564    315353.04 
     122            0   -127989.98   -28.532876   -58.359022    15.656242   -42.895848    8.4014311  -0.26107725    -0.684273    172.68816    183.15894    9.9702564    315353.04 
     123            0   -127989.98   -28.529586   -58.364999    15.659767   -42.883527     8.403736  -0.26606531  -0.68197655    172.68816    183.15894    9.9702564    315353.04 
     124            0   -127989.98    -28.50691   -58.356703    15.689746   -42.853774    8.4023633  -0.25833311  -0.67964855    172.68816    183.15894    9.9702564    315353.04 
     125            0   -127989.98   -28.533417   -58.382272    15.669592   -42.887573     8.412637  -0.24986763  -0.68135816    172.68816    183.15894    9.9702564    315353.04 
     126            0   -127989.98   -28.526018    -58.36846    15.682572   -42.892165    8.4078614   -0.2507606  -0.68355362    172.68816    183.15894    9.9702564    315353.04 
     127            0   -127989.98   -28.496581   -58.341246    15.711017   -42.859516    8.4044046  -0.26236272  -0.68945235    172.68816    183.15894    9.9702564    315353.04 
     128            0   -127989.98    -28.49438   -58.342803     15.70368   -42.844018    8.4233604  -0.26710888  -0.69677196    172.68816    183.15894    9.9702564    315353.04 
     129            0   -127989.98   -28.494785   -58.356171    15.704046    -42.83223    8.4396808  -0.26173831  -0.68870023    172.68816    183.15894    9.9702564    315353.04 
     130            0   -127989.98    -28.47056   -58.336035    15.725411   -42.801056    8.4465549  -0.25588591  -0.68085539    172.68816    183.15894    9.9702564    315353.04 
     131            0   -127989.98   -28.463185   -58.317829    15.733618   -42.805343    8.4374042  -0.25975738  -0.68948215    172.68816    183.15894    9.9702564    315353.04 
     132            0   -127989.98   -28.476787   -58.332473     15.71865   -42.816538     8.435888  -0.26811782  -0.69599733    172.68816    183.15894    9.9702564    315353.04 
     133            0   -127989.98   -28.461515   -58.322737    15.730285   -42.792094    8.4445765  -0.27245907  -0.69713397    172.68816    183.15894    9.9702564    315353.04 
     134            0   -127989.98   -28.451056   -58.309373    15.740036   -42.783829     8.450814  -0.27115932  -0.69856958    172.68816    183.15894    9.9702564    315353.04 
     135            0   -127989.98   -28.468098   -58.337314    15.726982   -42.793962    8.4703066  -0.26674763  -0.69030363    172.68816    183.15894    9.9702564    315353.04 
     136            0   -127989.98    -28.47197    -58.35101    15.719742   -42.784641    8.4916734   -0.2635228  -0.68682284    172.68816    183.15894    9.9702564    315353.04 
     137            0   -127989.98   -28.457339   -58.337344    15.736605   -42.771277    8.4945952  -0.26448429  -0.69588433    172.68816    183.15894    9.9702564    315353.04 
     138            0   -127989.98   -28.461687   -58.340167     15.72511   -42.770004    8.4901786  -0.26943336  -0.69418342    172.68816    183.15894    9.9702564    315353.04 
     139            0   -127989.98   -28.463084   -58.346891    15.721976   -42.764336    8.4896263  -0.27226388  -0.69267154    172.68816    183.15894    9.9702564    315353.04 
     140            0   -127989.98   -28.465965   -58.352447    15.718644   -42.764093    8.4937318  -0.27125264  -0.69846356    172.68816    183.15894    9.9702564    315353.04 
     141            0   -127989.98   -28.482653   -58.377333    15.709816   -42.780443    8.5077964  -0.26557581  -0.69647345    172.68816    183.15894    9.9702564    315353.04 
     142            0   -127989.98   -28.490609   -58.397543    15.707548   -42.781833    8.5230767  -0.26454316  -0.69057192    172.68816    183.15894    9.9702564    315353.04 
     143            0   -127989.98   -28.484918   -58.389747    15.706746   -42.771752    8.5236502  -0.26894594  -0.69126383    172.68816    183.15894    9.9702564    315353.04 
     144            0   -127989.98   -28.493979   -58.400016     15.69908      -42.781    8.5234347  -0.26875408  -0.69330621    172.68816    183.15894    9.9702564    315353.04 
     145            0   -127989.98   -28.506394   -58.419068    15.688758   -42.788871    8.5293456  -0.26407396  -0.69798788    172.68816    183.15894    9.9702564    315353.04 
     146            0   -127989.98    -28.50871   -58.425291     15.68431   -42.785149    8.5312402  -0.26716165  -0.69661866    172.68816    183.15894    9.9702564    315353.04 
     147            0   -127989.98   -28.510476   -58.426681    15.682761   -42.787506    8.5342506  -0.26791331   -0.6952124    172.68816    183.15894    9.9702564    315353.04 
     148            0   -127989.98   -28.517557    -58.43397    15.677011    -42.79571    8.5371781  -0.26756714   -0.6951123    172.68816    183.15894    9.9702564    315353.04 
     149            0   -127989.98   -28.523858    -58.44004    15.669178   -42.800712    8.5355813  -0.26812858  -0.69535112    172.68816    183.15894    9.9702564    315353.04 
     150            0   -127989.98   -28.529548   -58.446955    15.664049   -42.805737    8.5382155  -0.26567296  -0.69588125    172.68816    183.15894    9.9702564    315353.04 
     151            0   -127989.98   -28.535629   -58.458332    15.660063   -42.808618    8.5434092  -0.26665453  -0.69472275    172.68816    183.15894    9.9702564    315353.04 
     152            0   -127989.98   -28.537743   -58.460026    15.654885   -42.808088    8.5433289  -0.26915595  -0.69510439    172.68816    183.15894    9.9702564    315353.04 
     153            0   -127989.98   -28.537701   -58.457193    15.654517   -42.810425    8.5418628  -0.26867968  -0.69614309    172.68816    183.15894    9.9702564    315353.04 
     154            0   -127989.98   -28.538406   -58.457237    15.655155   -42.813136    8.5422165   -0.2676643  -0.69677216    172.68816    183.15894    9.9702564    315353.04 
     155            0   -127989.98   -28.534515   -58.453996     15.66008    -42.80963    8.5415948  -0.26752801  -0.69735247    172.68816    183.15894    9.9702564    315353.04 
     156            0   -127989.98   -28.531284   -58.451917    15.663737   -42.805673    8.5427615  -0.26749449  -0.69546022    172.68816    183.15894    9.9702564    315353.04 
     157            0   -127989.98   -28.530108   -58.449736    15.663969   -42.804558    8.5447387  -0.26744437  -0.69498898    172.68816    183.15894    9.9702564    315353.04 
     158            0   -127989.98   -28.528224    -58.44572    15.664828   -42.803782     8.543048   -0.2673365  -0.69590667    172.68816    183.15894    9.9702564    315353.04 
     159            0   -127989.98   -28.525841   -58.442381    15.667917    -42.80306    8.5406794  -0.26734544  -0.69500201    172.68816    183.15894    9.9702564    315353.04 
     160            0   -127989.98   -28.526935   -58.445011    15.666321   -42.802116    8.5420425  -0.26702367  -0.69507678    172.68816    183.15894    9.9702564    315353.04 
     161            0   -127989.98   -28.528994    -58.44692    15.662857   -42.802917    8.5438362  -0.26851984  -0.69713996    172.68816    183.15894    9.9702564    315353.04 
     162            0   -127989.98   -28.528028   -58.444139    15.665064   -42.805009    8.5425938   -0.2691127  -0.69694538    172.68816    183.15894    9.9702564    315353.04 
     163            0   -127989.98   -28.527115   -58.442628    15.666786   -42.805502    8.5414946  -0.26798628  -0.69583247    172.68816    183.15894    9.9702564    315353.04 
     164            0   -127989.98   -28.527016     -58.4431    15.667524   -42.805473    8.5401719  -0.26785312  -0.69546085    172.68816    183.15894    9.9702564    315353.04 
     165            0   -127989.98   -28.524839   -58.440684    15.669543   -42.803377    8.5397296  -0.26791787   -0.6952768    172.68816    183.15894    9.9702564    315353.04 
     166            0   -127989.98   -28.523905   -58.438885    15.669361    -42.80219    8.5423021  -0.26813815   -0.6953758    172.68816    183.15894    9.9702564    315353.04 
     167            0   -127989.98   -28.524212   -58.439091    15.668655   -42.802199    8.5419242  -0.26876214  -0.69557641    172.68816    183.15894    9.9702564    315353.04 
     168            0   -127989.98   -28.522421   -58.437477    15.670471   -42.800258    8.5409335  -0.26777332  -0.69575318    172.68816    183.15894    9.9702564    315353.04 
     169            0   -127989.98   -28.522892   -58.438439    15.670767   -42.801003    8.5413527  -0.26765419  -0.69581836    172.68816    183.15894    9.9702564    315353.04 
     170            0   -127989.98   -28.526404   -58.442469    15.667862   -42.804605    8.5416984  -0.26955154  -0.69566063    172.68816    183.15894    9.9702564    315353.04 
     171            0   -127989.98   -28.528253   -58.443283    15.664288   -42.805763    8.5417059  -0.26973008  -0.69490565    172.68816    183.15894    9.9702564    315353.04 
     172            0   -127989.98   -28.529549   -58.443524    15.661539   -42.806662    8.5413893  -0.26770696  -0.69398549    172.68816    183.15894    9.9702564    315353.04 
     173            0   -127989.98   -28.532714   -58.447511    15.660014   -42.810645    8.5426541   -0.2662067  -0.69507496    172.68816    183.15894    9.9702564    315353.04 
     174            0   -127989.98   -28.534928   -58.450444    15.656671   -42.811011    8.5438483  -0.26743119  -0.69487128    172.68816    183.15894    9.9702564    315353.04 
     175            0   -127989.98   -28.535059   -58.449894    15.654512   -42.809793    8.5443572  -0.26855095  -0.69519257    172.68816    183.15894    9.9702564    315353.04 
     176            0   -127989.98   -28.536595   -58.451498    15.652089   -42.810374     8.544822   -0.2689616  -0.69555992    172.68816    183.15894    9.9702564    315353.04 
     177            0   -127989.98   -28.537815   -58.453275    15.649824   -42.809992    8.5445358  -0.26756302  -0.69447663    172.68816    183.15894    9.9702564    315353.04 
     178            0   -127989.98   -28.537241   -58.454085    15.650593    -42.80823    8.5450641  -0.26586861  -0.69357623    172.68816    183.15894    9.9702564    315353.04 
     179            0   -127989.98   -28.537933   -58.455714    15.649952   -42.808036    8.5469845  -0.26677499  -0.69324296    172.68816    183.15894    9.9702564    315353.04 
     180            0   -127989.98   -28.538771   -58.456463    15.647547   -42.807397    8.5479661  -0.26852391  -0.69412609    172.68816    183.15894    9.9702564    315353.04 
     181            0   -127989.98   -28.538436   -58.455519    15.645304   -42.805093    8.5483918  -0.26845897  -0.69430623    172.68816    183.15894    9.9702564    315353.04 
     182            0   -127989.98   -28.537302   -58.454772    15.646512   -42.803646    8.5489419  -0.26729326  -0.69432739    172.68816    183.15894    9.9702564    315353.04 
     183            0   -127989.98   -28.535893   -58.454565    15.648543   -42.801658    8.5495817  -0.26668319  -0.69400414    172.68816    183.15894    9.9702564    315353.04 
     184            0   -127989.98   -28.534478   -58.454142    15.649438    -42.79873    8.5503355  -0.26776871  -0.69296866    172.68816    183.15894    9.9702564    315353.04 
     185            0   -127989.98    -28.53372   -58.453196    15.649294   -42.797258    8.5514177  -0.26836396  -0.69329788    172.68816    183.15894    9.9702564    315353.04 
     186            0   -127989.98   -28.532807   -58.452168    15.651059   -42.797312    8.5531503  -0.26709116  -0.69437634    172.68816    183.15894    9.9702564    315353.04 
     187            0   -127989.98   -28.532072   -58.451848    15.652109   -42.796476    8.5548787   -0.2672111  -0.69325045    172.68816    183.15894    9.9702564    315353.04 
     188            0   -127989.98   -28.531516   -58.451936    15.652702   -42.795313    8.5550227  -0.26720103  -0.69308585    172.68816    183.15894    9.9702564    315353.04 
     189            0   -127989.98   -28.532229   -58.451509    15.650458   -42.795636    8.5555535  -0.26758319  -0.69331739    172.68816    183.15894    9.9702564    315353.04 
     190            0   -127989.98   -28.532297   -58.451192    15.650504   -42.796202    8.5576898  -0.26786194   -0.6932884    172.68816    183.15894    9.9702564    315353.04 
     191            0   -127989.98   -28.531491   -58.453297    15.654203   -42.795378      8.56043  -0.26756114  -0.69385212    172.68816    183.15894    9.9702564    315353.04 
     192            0   -127989.98   -28.531355   -58.454177     15.65447   -42.794358    8.5614877  -0.26752009  -0.69431485    172.68816    183.15894    9.9702564    315353.04 
     193            0   -127989.98   -28.530192   -58.452361    15.654238   -42.792455    8.5606458  -0.26802911  -0.69435702    172.68816    183.15894    9.9702564    315353.04 
     194            0   -127989.98   -28.529279   -58.451924    15.655331   -42.791243    8.5614343  -0.26825143  -0.69395312    172.68816    183.15894    9.9702564    315353.04 
     195            0   -127989.98   -28.530262   -58.454666    15.654742   -42.790862    8.5641477  -0.26772658  -0.69306849    172.68816    183.15894    9.9702564    315353.04 
     196            0   -127989.98   -28.530946    -58.45778    15.655024   -42.790082    8.5664466  -0.26731144  -0.69290027    172.68816    183.15894    9.9702564    315353.04 
     197            0   -127989.98   -28.530679   -58.459039    15.656743   -42.789741    8.5673168  -0.26767613  -0.69394304    172.68816    183.15894    9.9702564    315353.04 
     198            0   -127989.98   -28.532445   -58.461033    15.654956    -42.79126    8.5669971  -0.26813178  -0.69426434    172.68816    183.15894    9.9702564    315353.04 
     199            0   -127989.98   -28.534317   -58.462839    15.651803   -42.791916    8.5674191  -0.26879603  -0.69393561    172.68816    183.15894    9.9702564    315353.04 
     200            0   -127989.98   -28.535349   -58.464494    15.650807   -42.792358    8.5683074  -0.26860222  -0.69326084    172.68816    183.15894    9.9702564    315353.04 
Loop time of 10.0177 on 1 procs for 100 steps with 28800 atoms

98.4% CPU use with 1 MPI tasks x no OpenMP threads

Minimization stats:
  Stopping criterion = max iterations
  Energy initial, next-to-last, final = 
      -127987.87723859  -127989.983334798  -127989.983336454
  Force two-norm initial, final = 5.9222951 0.0043752122
  Force max component initial, final = 0.087154323 8.2093983e-05
  Final line search alpha, max atom move = 1.0000000 8.2093983e-05
  Iterations, force evaluations = 100 200

MPI task timing breakdown:
Section |  min time  |  avg time  |  max time  |%varavg| %total
---------------------------------------------------------------
Pair    | 9.7687     | 9.7687     | 9.7687     |   0.0 | 97.51
Neigh   | 0          | 0          | 0          |   0.0 |  0.00
Comm    | 0.051927   | 0.051927   | 0.051927   |   0.0 |  0.52
Output  | 0.097709   | 0.097709   | 0.097709   |   0.0 |  0.98
Modify  | 0          | 0          | 0          |   0.0 |  0.00
Other   |            | 0.09934    |            |       |  0.99

Nlocal:        28800.0 ave       28800 max       28800 min
Histogram: 1 0 0 0 0 0 0 0 0 0
Nghost:        55590.0 ave       55590 max       55590 min
Histogram: 1 0 0 0 0 0 0 0 0 0
Neighs:    2.53440e+06 ave  2.5344e+06 max  2.5344e+06 min
Histogram: 1 0 0 0 0 0 0 0 0 0

Total # of neighbors = 2534400
Ave neighs/atom = 88.000000
Neighbor list builds = 0
Dangerous builds = 0

# Obtain new stress tensor

variable tmp equal pxx
variable pxx1 equal ${tmp}
variable pxx1 equal -58.464494330224
variable tmp equal pyy
variable pyy1 equal ${tmp}
variable pyy1 equal 15.6508068741174
variable tmp equal pzz
variable pzz1 equal ${tmp}
variable pzz1 equal -42.7923584244363
variable tmp equal pxy
variable pxy1 equal ${tmp}
variable pxy1 equal 8.56830735878938
variable tmp equal pxz
variable pxz1 equal ${tmp}
variable pxz1 equal -0.268602220795182
variable tmp equal pyz
variable pyz1 equal ${tmp}
variable pyz1 equal -0.693260836938252

# Compute elastic constant from pressure tensor

variable C1neg equal ${d1}
variable C1neg equal 2117.64683214219
variable C2neg equal ${d2}
variable C2neg equal 1787.296192906
variable C3neg equal ${d3}
variable C3neg equal 1113.35266612092
variable C4neg equal ${d4}
variable C4neg equal -89.1994385620185
variable C5neg equal ${d5}
variable C5neg equal -99.2698838972879
variable C6neg equal ${d6}
variable C6neg equal -192.208874987522

# Reset box and simulation parameters

clear
box tilt large
read_restart restart.equil
Reading restart file ...
  restart file = 27 Oct 2021, LAMMPS = 27 Oct 2021
  restoring atom style atomic from restart
  triclinic box = (0.10464416 0.11334298 0.0059963384) to (172.79298 183.27228 9.9762527) with tilt (0.0000000 0.0000000 0.0000000)
  1 by 1 by 1 MPI processor grid
  pair style eam/alloy stores no restart info
  28800 atoms
  read_restart CPU = 0.002 seconds
include potential.mod
# NOTE: This script can be modified for different pair styles
# See in.elastic for more info.

# Choose potential
#pair_style	sw
#pair_coeff * * Si.sw Si
pair_style	eam/alloy
pair_coeff	* * NiCo-lammps-2014.alloy Ni Co

# Setup neighbor style
neighbor 1.0 nsq
neigh_modify once no every 1 delay 0 check yes

# Setup minimization style
min_style	     cg
min_modify	     dmax ${dmax} line quadratic
min_modify	     dmax 0.01 line quadratic

# Setup output
thermo		1
thermo_style custom step temp pe press pxx pyy pzz pxy pxz pyz lx ly lz vol
thermo_modify norm no

# Positive deformation

variable delta equal ${up}*${len0}
variable delta equal 1e-06*${len0}
variable delta equal 1e-06*172.688337096475
variable deltaxy equal ${up}*xy
variable deltaxy equal 1e-06*xy
variable deltaxz equal ${up}*xz
variable deltaxz equal 1e-06*xz
variable deltayz equal ${up}*yz
variable deltayz equal 1e-06*yz
if "${dir} == 1" then    "change_box all x delta 0 ${delta} xy delta ${deltaxy} xz delta ${deltaxz} remap units box"
change_box all x delta 0 ${delta} xy delta ${deltaxy} xz delta ${deltaxz} remap units box
change_box all x delta 0 0.000172688337096475 xy delta ${deltaxy} xz delta ${deltaxz} remap units box
change_box all x delta 0 0.000172688337096475 xy delta 0 xz delta ${deltaxz} remap units box
change_box all x delta 0 0.000172688337096475 xy delta 0 xz delta 0 remap units box
Changing box ...
  triclinic box = (0.10464416 0.11334298 0.0059963384) to (172.79315 183.27228 9.9762527) with tilt (0.0000000 0.0000000 0.0000000)
  triclinic box = (0.10464416 0.11334298 0.0059963384) to (172.79315 183.27228 9.9762527) with tilt (0.0000000 0.0000000 0.0000000)
  triclinic box = (0.10464416 0.11334298 0.0059963384) to (172.79315 183.27228 9.9762527) with tilt (0.0000000 0.0000000 0.0000000)
if "${dir} == 2" then    "change_box all y delta 0 ${delta} yz delta ${deltayz} remap units box"
if "${dir} == 3" then    "change_box all z delta 0 ${delta} remap units box"
if "${dir} == 4" then    "change_box all yz delta ${delta} remap units box"
if "${dir} == 5" then    "change_box all xz delta ${delta} remap units box"
if "${dir} == 6" then    "change_box all xy delta ${delta} remap units box"

# Relax atoms positions

minimize ${etol} ${ftol} ${maxiter} ${maxeval}
minimize 0 ${ftol} ${maxiter} ${maxeval}
minimize 0 1e-10 ${maxiter} ${maxeval}
minimize 0 1e-10 100 ${maxeval}
minimize 0 1e-10 100 1000
Neighbor list info ...
  update every 1 steps, delay 0 steps, check yes
  max neighbors/atom: 2000, page size: 100000
  master list distance cutoff = 7.5
  ghost atom cutoff = 7.5
  1 neighbor lists, perpetual/occasional/extra = 1 0 0
  (1) pair eam/alloy, perpetual
      attributes: half, newton on
      pair build: half/nsq/newton
      stencil: none
      bin: none
Per MPI rank memory allocation (min/avg/max) = 36.13 | 36.13 | 36.13 Mbytes
Step Temp PotEng Press Pxx Pyy Pzz Pxy Pxz Pyz Lx Ly Lz Volume 
     100            0   -127987.88    -47.09231   -82.889941   -3.2078469   -55.179141    10.119346   0.72382435   0.19850455    172.68851    183.15894    9.9702564    315353.67 
     101            0   -127989.75    -38.36104   -68.160373    9.2086057   -56.131354     6.721548    0.1068955  -0.13443376    172.68851    183.15894    9.9702564    315353.67 
     102            0   -127989.89   -25.871738   -56.348765    20.786987   -42.053437    5.8641908  -0.24047022  -0.43219687    172.68851    183.15894    9.9702564    315353.67 
     103            0   -127989.93   -30.996714   -63.156621    14.765536   -44.599056     6.725087  -0.23473318  -0.67337423    172.68851    183.15894    9.9702564    315353.67 
     104            0   -127989.94    -30.74945   -63.052231    14.868912    -44.06503    6.7083612  -0.23933075  -0.74000992    172.68851    183.15894    9.9702564    315353.67 
     105            0   -127989.95   -30.401523   -62.674442    15.353131   -43.883258     6.910171   -0.3113378  -0.65855758    172.68851    183.15894    9.9702564    315353.67 
     106            0   -127989.95   -32.263242     -64.3348    13.572317   -46.027243    6.6878065  -0.27009365  -0.62351134    172.68851    183.15894    9.9702564    315353.67 
     107            0   -127989.96   -31.901569    -64.21353    13.874294    -45.36547     6.991126  -0.20858617  -0.62830756    172.68851    183.15894    9.9702564    315353.67 
     108            0   -127989.96   -31.755391   -64.247682    14.097981   -45.116472    7.2891049  -0.21780498  -0.67760553    172.68851    183.15894    9.9702564    315353.67 
     109            0   -127989.97   -32.299221   -64.702101    13.582179    -45.77774    7.2467909   -0.2593154  -0.70752269    172.68851    183.15894    9.9702564    315353.67 
     110            0   -127989.97   -32.146081   -64.555053    13.677426   -45.560615    7.2108993  -0.29850513  -0.70005123    172.68851    183.15894    9.9702564    315353.67 
     111            0   -127989.97   -31.959283   -64.446563    13.895684   -45.326971    7.3023893  -0.27672408  -0.67035585    172.68851    183.15894    9.9702564    315353.67 
     112            0   -127989.97   -32.037007   -64.561349    13.831289   -45.380961     7.349381  -0.23120576  -0.66748012    172.68851    183.15894    9.9702564    315353.67 
     113            0   -127989.97   -31.991778   -64.550102    13.841376   -45.266608    7.3859828  -0.23012762  -0.68631403    172.68851    183.15894    9.9702564    315353.67 
     114            0   -127989.98   -31.905027   -64.485421    13.963778   -45.193439    7.5285877  -0.26042679  -0.69606504    172.68851    183.15894    9.9702564    315353.67 
     115            0   -127989.98   -32.054237   -64.674098    13.817837   -45.306449    7.5941783  -0.26626408  -0.68204736    172.68851    183.15894    9.9702564    315353.67 
     116            0   -127989.98   -32.164599   -64.792163    13.687239   -45.388873    7.5725728  -0.26482466  -0.67870509    172.68851    183.15894    9.9702564    315353.67 
     117            0   -127989.98   -32.083614   -64.691445    13.782371   -45.341768    7.5450869  -0.24954126  -0.68887286    172.68851    183.15894    9.9702564    315353.67 
     118            0   -127989.98   -32.116828    -64.71004    13.743884   -45.384328    7.5315096  -0.24238624   -0.6776302    172.68851    183.15894    9.9702564    315353.67 
     119            0   -127989.98   -32.211295   -64.821383    13.663294   -45.475798    7.5746216  -0.25381895  -0.67134498    172.68851    183.15894    9.9702564    315353.67 
     120            0   -127989.98   -32.200941   -64.848862    13.693781   -45.447743    7.6402547  -0.25442881   -0.6718126    172.68851    183.15894    9.9702564    315353.67 
     121            0   -127989.98   -32.158262   -64.817246    13.723345   -45.380885    7.6567425  -0.24784249  -0.67827022    172.68851    183.15894    9.9702564    315353.67 
     122            0   -127989.98   -32.184699    -64.84591    13.685929   -45.394117    7.6560019  -0.26117743  -0.68425859    172.68851    183.15894    9.9702564    315353.67 
     123            0   -127989.98   -32.181395   -64.851869    13.689466   -45.381782    7.6583069  -0.26616275  -0.68196282    172.68851    183.15894    9.9702564    315353.67 
     124            0   -127989.98   -32.158723   -64.843576    13.719441   -45.352034    7.6569372  -0.25843254  -0.67963395    172.68851    183.15894    9.9702564    315353.67 
     125            0   -127989.98   -32.185237   -64.869151     13.69928   -45.385841    7.6672111  -0.24996815  -0.68134394    172.68851    183.15894    9.9702564    315353.67 
     126            0   -127989.98   -32.177829   -64.855331    13.712268   -45.390425     7.662434  -0.25086089  -0.68353992    172.68851    183.15894    9.9702564    315353.67 
     127            0   -127989.98   -32.148395   -64.828119     13.74071   -45.357776    7.6589757  -0.26246239  -0.68943831    172.68851    183.15894    9.9702564    315353.67 
     128            0   -127989.98   -32.146202   -64.829685    13.733363   -45.342286    7.6779329  -0.26720753  -0.69675827    172.68851    183.15894    9.9702564    315353.67 
     129            0   -127989.98   -32.146601   -64.843047    13.733735   -45.330492    7.6942525  -0.26183795  -0.68868544    172.68851    183.15894    9.9702564    315353.67 
     130            0   -127989.98   -32.122377   -64.822912    13.755101   -45.299319    7.7011272   -0.2559854  -0.68084182    172.68851    183.15894    9.9702564    315353.67 
     131            0   -127989.98   -32.115007    -64.80471    13.763303   -45.303613    7.6919775  -0.25985713  -0.68946865    172.68851    183.15894    9.9702564    315353.67 
     132            0   -127989.98   -32.128606   -64.819349    13.748336   -45.314804    7.6904596  -0.26821677  -0.69598289    172.68851    183.15894    9.9702564    315353.67 
     133            0   -127989.98   -32.113331    -64.80961    13.759973   -45.290357    7.6991481  -0.27255811  -0.69711996    172.68851    183.15894    9.9702564    315353.67 
     134            0   -127989.98   -32.102876   -64.796251    13.769721   -45.282098    7.7053864  -0.27125907  -0.69855619    172.68851    183.15894    9.9702564    315353.67 
     135            0   -127989.98   -32.119918    -64.82419    13.756665   -45.292231    7.7248788  -0.26684749  -0.69028936    172.68851    183.15894    9.9702564    315353.67 
     136            0   -127989.98   -32.123785   -64.837879    13.749429   -45.282903    7.7462444  -0.26362266  -0.68680965    172.68851    183.15894    9.9702564    315353.67 
     137            0   -127989.98   -32.109157   -64.824217    13.766288   -45.269542    7.7491653  -0.26458396   -0.6958702    172.68851    183.15894    9.9702564    315353.67 
     138            0   -127989.98   -32.113508   -64.827044    13.754792   -45.268272    7.7447497   -0.2695322  -0.69416878    172.68851    183.15894    9.9702564    315353.67 
     139            0   -127989.98     -32.1149   -64.833762    13.751663     -45.2626    7.7441969  -0.27236263  -0.69265763    172.68851    183.15894    9.9702564    315353.67 
     140            0   -127989.98   -32.117785   -64.839319    13.748327   -45.262362    7.7483033  -0.27135183  -0.69844972    172.68851    183.15894    9.9702564    315353.67 
     141            0   -127989.98   -32.134473   -64.864205    13.739496    -45.27871    7.7623675   -0.2656757  -0.69645866    172.68851    183.15894    9.9702564    315353.67 
     142            0   -127989.98   -32.142425   -64.884411    13.737232   -45.280096    7.7776467  -0.26464306  -0.69055807    172.68851    183.15894    9.9702564    315353.67 
     143            0   -127989.98   -32.136734   -64.876616    13.736431   -45.270016    7.7782199  -0.26904574  -0.69125067    172.68851    183.15894    9.9702564    315353.67 
     144            0   -127989.98   -32.145798   -64.886889    13.728764   -45.279267    7.7780052  -0.26885297  -0.69329246    172.68851    183.15894    9.9702564    315353.67 
     145            0   -127989.98    -32.15821   -64.905936    13.718442   -45.287136    7.7839161  -0.26417333  -0.69797388    172.68851    183.15894    9.9702564    315353.67 
     146            0   -127989.98   -32.160526   -64.912159    13.713994   -45.283413    7.7858099  -0.26726164  -0.69660442    172.68851    183.15894    9.9702564    315353.67 
     147            0   -127989.98   -32.162293   -64.913551    13.712445   -45.285773     7.788821  -0.26801227  -0.69519844    172.68851    183.15894    9.9702564    315353.67 
     148            0   -127989.98   -32.169374    -64.92084    13.706694   -45.293977     7.791748  -0.26766655  -0.69509829    172.68851    183.15894    9.9702564    315353.67 
     149            0   -127989.98   -32.175676    -64.92691    13.698861   -45.298978    7.7901507  -0.26822782  -0.69533761    172.68851    183.15894    9.9702564    315353.67 
     150            0   -127989.98   -32.181366   -64.933826    13.693731   -45.304004    7.7927856  -0.26577245  -0.69586709    172.68851    183.15894    9.9702564    315353.67 
     151            0   -127989.98   -32.187447   -64.945202    13.689745   -45.306884    7.7979792  -0.26675426  -0.69470864    172.68851    183.15894    9.9702564    315353.67 
     152            0   -127989.98    -32.18956   -64.946895    13.684568   -45.306354    7.7978987  -0.26925531  -0.69509066    172.68851    183.15894    9.9702564    315353.67 
     153            0   -127989.98   -32.189518   -64.944063      13.6842   -45.308692    7.7964329  -0.26877873  -0.69612929    172.68851    183.15894    9.9702564    315353.67 
     154            0   -127989.98   -32.190224   -64.944108    13.684838   -45.311403    7.7967865  -0.26776373  -0.69675835    172.68851    183.15894    9.9702564    315353.67 
     155            0   -127989.98   -32.186332   -64.940865    13.689764   -45.307895    7.7961645  -0.26762785  -0.69733855    172.68851    183.15894    9.9702564    315353.67 
     156            0   -127989.98   -32.183102   -64.938788     13.69342   -45.303939    7.7973312  -0.26759404  -0.69544621    172.68851    183.15894    9.9702564    315353.67 
     157            0   -127989.98   -32.181926   -64.936605    13.693652   -45.302824    7.7993086  -0.26754364  -0.69497522    172.68851    183.15894    9.9702564    315353.67 
     158            0   -127989.98   -32.180042    -64.93259    13.694512   -45.302048    7.7976175  -0.26743593  -0.69589289    172.68851    183.15894    9.9702564    315353.67 
     159            0   -127989.98   -32.177659   -64.929251      13.6976   -45.301326    7.7952493  -0.26744502  -0.69498805    172.68851    183.15894    9.9702564    315353.67 
     160            0   -127989.98   -32.178754   -64.931881    13.696003   -45.300382    7.7966127  -0.26712358  -0.69506309    172.68851    183.15894    9.9702564    315353.67 
     161            0   -127989.98   -32.180811    -64.93379    13.692539   -45.301183     7.798406  -0.26861935  -0.69712643    172.68851    183.15894    9.9702564    315353.67 
     162            0   -127989.98   -32.179845   -64.931008    13.694747   -45.303275    7.7971632  -0.26921203   -0.6969314    172.68851    183.15894    9.9702564    315353.67 
     163            0   -127989.98   -32.178933     -64.9295    13.696468   -45.303769    7.7960641  -0.26808575  -0.69581855    172.68851    183.15894    9.9702564    315353.67 
     164            0   -127989.98   -32.178834   -64.929971    13.697207   -45.303739    7.7947416  -0.26795292  -0.69544692    172.68851    183.15894    9.9702564    315353.67 
     165            0   -127989.98   -32.176657   -64.927555    13.699226   -45.301643    7.7942995  -0.26801764  -0.69526302    172.68851    183.15894    9.9702564    315353.67 
     166            0   -127989.98   -32.175723   -64.925756    13.699043   -45.300456    7.7968722  -0.26823786  -0.69536215    172.68851    183.15894    9.9702564    315353.67 
     167            0   -127989.98    -32.17603   -64.925962    13.698337   -45.300466    7.7964938  -0.26886201  -0.69556253    172.68851    183.15894    9.9702564    315353.67 
     168            0   -127989.98    -32.17424   -64.924349    13.700153   -45.298524    7.7955031  -0.26787282  -0.69573938    172.68851    183.15894    9.9702564    315353.67 
     169            0   -127989.98    -32.17471    -64.92531    13.700449    -45.29927    7.7959226    -0.267754  -0.69580434    172.68851    183.15894    9.9702564    315353.67 
     170            0   -127989.98   -32.178223    -64.92934    13.697544   -45.302873     7.796268  -0.26965101  -0.69564692    172.68851    183.15894    9.9702564    315353.67 
     171            0   -127989.98   -32.180071   -64.930154     13.69397    -45.30403    7.7962755  -0.26982961  -0.69489181    172.68851    183.15894    9.9702564    315353.67 
     172            0   -127989.98   -32.181368   -64.930396    13.691222   -45.304929     7.795959  -0.26780666  -0.69397162    172.68851    183.15894    9.9702564    315353.67 
     173            0   -127989.98   -32.184533   -64.934383    13.689696   -45.308912    7.7972241   -0.2663068  -0.69506097    172.68851    183.15894    9.9702564    315353.67 
     174            0   -127989.98   -32.186746   -64.937315    13.686353   -45.309277    7.7984181  -0.26753116  -0.69485728    172.68851    183.15894    9.9702564    315353.67 
     175            0   -127989.98   -32.186877   -64.936765    13.684194    -45.30806    7.7989267  -0.26865067  -0.69517885    172.68851    183.15894    9.9702564    315353.67 
     176            0   -127989.98   -32.188413   -64.938369    13.681771   -45.308642    7.7993915   -0.2690613  -0.69554595    172.68851    183.15894    9.9702564    315353.67 
     177            0   -127989.98   -32.189633   -64.940146    13.679506   -45.308259    7.7991052  -0.26766262   -0.6944626    172.68851    183.15894    9.9702564    315353.67 
     178            0   -127989.98   -32.189059   -64.940956    13.680275   -45.306497    7.7996336  -0.26596853  -0.69356222    172.68851    183.15894    9.9702564    315353.67 
     179            0   -127989.98   -32.189752   -64.942585    13.679634   -45.306303    7.8015541  -0.26687503  -0.69322912    172.68851    183.15894    9.9702564    315353.67 
     180            0   -127989.98    -32.19059   -64.943334    13.677229   -45.305664    7.8025352  -0.26862357  -0.69411225    172.68851    183.15894    9.9702564    315353.67 
     181            0   -127989.98   -32.190255    -64.94239    13.674986   -45.303361    7.8029608   -0.2685586   -0.6942924    172.68851    183.15894    9.9702564    315353.67 
     182            0   -127989.98   -32.189121   -64.941643    13.676194   -45.301914    7.8035112  -0.26739306  -0.69431349    172.68851    183.15894    9.9702564    315353.67 
     183            0   -127989.98   -32.187712   -64.941435    13.678225   -45.299925    7.8041506  -0.26678317  -0.69399014    172.68851    183.15894    9.9702564    315353.67 
     184            0   -127989.98   -32.186296   -64.941012     13.67912   -45.296997    7.8049043  -0.26786878  -0.69295479    172.68851    183.15894    9.9702564    315353.67 
     185            0   -127989.98   -32.185539   -64.940066    13.678976   -45.295526    7.8059864  -0.26846359   -0.6932842    172.68851    183.15894    9.9702564    315353.67 
     186            0   -127989.98   -32.184626   -64.939039     13.68074    -45.29558    7.8077189  -0.26719091  -0.69436235    172.68851    183.15894    9.9702564    315353.67 
     187            0   -127989.98    -32.18389   -64.938717     13.68179   -45.294743     7.809447  -0.26731108  -0.69323643    172.68851    183.15894    9.9702564    315353.67 
     188            0   -127989.98   -32.183334   -64.938806    13.682384    -45.29358    7.8095909  -0.26730099  -0.69307209    172.68851    183.15894    9.9702564    315353.67 
     189            0   -127989.98   -32.184048   -64.938379    13.680139   -45.293904    7.8101222  -0.26768312  -0.69330344    172.68851    183.15894    9.9702564    315353.67 
     190            0   -127989.98   -32.184115   -64.938061    13.680185   -45.294469    7.8122587  -0.26796167  -0.69327465    172.68851    183.15894    9.9702564    315353.67 
     191            0   -127989.98   -32.183309   -64.940166    13.683885   -45.293645    7.8149983  -0.26766085  -0.69383841    172.68851    183.15894    9.9702564    315353.67 
     192            0   -127989.98   -32.183174   -64.941046    13.684151   -45.292626    7.8160554  -0.26762019    -0.694301    172.68851    183.15894    9.9702564    315353.67 
     193            0   -127989.98   -32.182011    -64.93923     13.68392   -45.290722    7.8152136  -0.26812931  -0.69434289    172.68851    183.15894    9.9702564    315353.67 
     194            0   -127989.98   -32.181097   -64.938793    13.685013   -45.289511    7.8160023   -0.2683511  -0.69393902    172.68851    183.15894    9.9702564    315353.67 
     195            0   -127989.98   -32.182081   -64.941536    13.684422    -45.28913    7.8187158  -0.26782619  -0.69305448    172.68851    183.15894    9.9702564    315353.67 
     196            0   -127989.98   -32.182764   -64.944649    13.684706   -45.288349    7.8210144  -0.26741152  -0.69288649    172.68851    183.15894    9.9702564    315353.67 
     197            0   -127989.98   -32.182497   -64.945907    13.686425   -45.288009    7.8218844  -0.26777615  -0.69392938    172.68851    183.15894    9.9702564    315353.67 
     198            0   -127989.98   -32.184263   -64.947901    13.684638   -45.289527    7.8215649   -0.2682319  -0.69425035    172.68851    183.15894    9.9702564    315353.67 
     199            0   -127989.98   -32.186135   -64.949708    13.681485   -45.290183    7.8219869  -0.26889586  -0.69392169    172.68851    183.15894    9.9702564    315353.67 
     200            0   -127989.98   -32.187167   -64.951363    13.680489   -45.290626    7.8228751  -0.26870188  -0.69324687    172.68851    183.15894    9.9702564    315353.67 
Loop time of 9.70313 on 1 procs for 100 steps with 28800 atoms

98.9% CPU use with 1 MPI tasks x no OpenMP threads

Minimization stats:
  Stopping criterion = max iterations
  Energy initial, next-to-last, final = 
     -127987.877207245  -127989.983310511  -127989.983312167
  Force two-norm initial, final = 5.9222920 0.0043751211
  Force max component initial, final = 0.087154226 8.2118059e-05
  Final line search alpha, max atom move = 1.0000000 8.2118059e-05
  Iterations, force evaluations = 100 200

MPI task timing breakdown:
Section |  min time  |  avg time  |  max time  |%varavg| %total
---------------------------------------------------------------
Pair    | 9.4545     | 9.4545     | 9.4545     |   0.0 | 97.44
Neigh   | 0          | 0          | 0          |   0.0 |  0.00
Comm    | 0.05237    | 0.05237    | 0.05237    |   0.0 |  0.54
Output  | 0.095088   | 0.095088   | 0.095088   |   0.0 |  0.98
Modify  | 0          | 0          | 0          |   0.0 |  0.00
Other   |            | 0.1012     |            |       |  1.04

Nlocal:        28800.0 ave       28800 max       28800 min
Histogram: 1 0 0 0 0 0 0 0 0 0
Nghost:        55590.0 ave       55590 max       55590 min
Histogram: 1 0 0 0 0 0 0 0 0 0
Neighs:    2.53440e+06 ave  2.5344e+06 max  2.5344e+06 min
Histogram: 1 0 0 0 0 0 0 0 0 0

Total # of neighbors = 2534400
Ave neighs/atom = 88.000000
Neighbor list builds = 0
Dangerous builds = 0

# Obtain new stress tensor

variable tmp equal pe
variable e1 equal ${tmp}
variable e1 equal -127989.983312167
variable tmp equal press
variable p1 equal ${tmp}
variable p1 equal -32.1871667408593
variable tmp equal pxx
variable pxx1 equal ${tmp}
variable pxx1 equal -64.9513632865474
variable tmp equal pyy
variable pyy1 equal ${tmp}
variable pyy1 equal 13.6804888709592
variable tmp equal pzz
variable pzz1 equal ${tmp}
variable pzz1 equal -45.2906258069896
variable tmp equal pxy
variable pxy1 equal ${tmp}
variable pxy1 equal 7.8228750856653
variable tmp equal pxz
variable pxz1 equal ${tmp}
variable pxz1 equal -0.268701882286011
variable tmp equal pyz
variable pyz1 equal ${tmp}
variable pyz1 equal -0.693246872689507

# Compute elastic constant from pressure tensor

variable C1pos equal ${d1}
variable C1pos equal -1468.95993650985
variable C2pos equal ${d2}
variable C2pos equal -1590.26439259018
variable C3pos equal ${d3}
variable C3pos equal -863.525927865589
variable C4pos equal ${d4}
variable C4pos equal 89.198042137144
variable C5pos equal ${d5}
variable C5pos equal 99.2798500463708
variable C6pos equal ${d6}
variable C6pos equal 266.75210229993

# Combine positive and negative

variable C1${dir} equal 0.5*(${C1neg}+${C1pos})
variable C11 equal 0.5*(${C1neg}+${C1pos})
variable C11 equal 0.5*(2117.64683214219+${C1pos})
variable C11 equal 0.5*(2117.64683214219+-1468.95993650985)
variable C2${dir} equal 0.5*(${C2neg}+${C2pos})
variable C21 equal 0.5*(${C2neg}+${C2pos})
variable C21 equal 0.5*(1787.296192906+${C2pos})
variable C21 equal 0.5*(1787.296192906+-1590.26439259018)
variable C3${dir} equal 0.5*(${C3neg}+${C3pos})
variable C31 equal 0.5*(${C3neg}+${C3pos})
variable C31 equal 0.5*(1113.35266612092+${C3pos})
variable C31 equal 0.5*(1113.35266612092+-863.525927865589)
variable C4${dir} equal 0.5*(${C4neg}+${C4pos})
variable C41 equal 0.5*(${C4neg}+${C4pos})
variable C41 equal 0.5*(-89.1994385620185+${C4pos})
variable C41 equal 0.5*(-89.1994385620185+89.198042137144)
variable C5${dir} equal 0.5*(${C5neg}+${C5pos})
variable C51 equal 0.5*(${C5neg}+${C5pos})
variable C51 equal 0.5*(-99.2698838972879+${C5pos})
variable C51 equal 0.5*(-99.2698838972879+99.2798500463708)
variable C6${dir} equal 0.5*(${C6neg}+${C6pos})
variable C61 equal 0.5*(${C6neg}+${C6pos})
variable C61 equal 0.5*(-192.208874987522+${C6pos})
variable C61 equal 0.5*(-192.208874987522+266.75210229993)

# Delete dir to make sure it is not reused

variable dir delete

# uyy Perturbation

variable dir equal 2
include displace.mod
# NOTE: This script should not need to be
# modified. See in.elastic for more info.
#
# Find which reference length to use

if "${dir} == 1" then    "variable len0 equal ${lx0}"
if "${dir} == 2" then    "variable len0 equal ${ly0}"
variable len0 equal ${ly0}
variable len0 equal 183.15893910637
if "${dir} == 3" then    "variable len0 equal ${lz0}"
if "${dir} == 4" then    "variable len0 equal ${lz0}"
if "${dir} == 5" then    "variable len0 equal ${lz0}"
if "${dir} == 6" then    "variable len0 equal ${ly0}"

# Reset box and simulation parameters

clear
box tilt large
read_restart restart.equil
Reading restart file ...
  restart file = 27 Oct 2021, LAMMPS = 27 Oct 2021
  restoring atom style atomic from restart
  triclinic box = (0.10464416 0.11334298 0.0059963384) to (172.79298 183.27228 9.9762527) with tilt (0.0000000 0.0000000 0.0000000)
  1 by 1 by 1 MPI processor grid
  pair style eam/alloy stores no restart info
  28800 atoms
  read_restart CPU = 0.002 seconds
include potential.mod
# NOTE: This script can be modified for different pair styles
# See in.elastic for more info.

# Choose potential
#pair_style	sw
#pair_coeff * * Si.sw Si
pair_style	eam/alloy
pair_coeff	* * NiCo-lammps-2014.alloy Ni Co

# Setup neighbor style
neighbor 1.0 nsq
neigh_modify once no every 1 delay 0 check yes

# Setup minimization style
min_style	     cg
min_modify	     dmax ${dmax} line quadratic
min_modify	     dmax 0.01 line quadratic

# Setup output
thermo		1
thermo_style custom step temp pe press pxx pyy pzz pxy pxz pyz lx ly lz vol
thermo_modify norm no

# Negative deformation

variable delta equal -${up}*${len0}
variable delta equal -1e-06*${len0}
variable delta equal -1e-06*183.15893910637
variable deltaxy equal -${up}*xy
variable deltaxy equal -1e-06*xy
variable deltaxz equal -${up}*xz
variable deltaxz equal -1e-06*xz
variable deltayz equal -${up}*yz
variable deltayz equal -1e-06*yz
if "${dir} == 1" then    "change_box all x delta 0 ${delta} xy delta ${deltaxy} xz delta ${deltaxz} remap units box"
if "${dir} == 2" then    "change_box all y delta 0 ${delta} yz delta ${deltayz} remap units box"
change_box all y delta 0 ${delta} yz delta ${deltayz} remap units box
change_box all y delta 0 -0.00018315893910637 yz delta ${deltayz} remap units box
change_box all y delta 0 -0.00018315893910637 yz delta -0 remap units box
Changing box ...
  triclinic box = (0.10464416 0.11334298 0.0059963384) to (172.79298 183.27210 9.9762527) with tilt (0.0000000 0.0000000 0.0000000)
  triclinic box = (0.10464416 0.11334298 0.0059963384) to (172.79298 183.27210 9.9762527) with tilt (0.0000000 0.0000000 0.0000000)
if "${dir} == 3" then    "change_box all z delta 0 ${delta} remap units box"
if "${dir} == 4" then    "change_box all yz delta ${delta} remap units box"
if "${dir} == 5" then    "change_box all xz delta ${delta} remap units box"
if "${dir} == 6" then    "change_box all xy delta ${delta} remap units box"

# Relax atoms positions

minimize ${etol} ${ftol} ${maxiter} ${maxeval}
minimize 0 ${ftol} ${maxiter} ${maxeval}
minimize 0 1e-10 ${maxiter} ${maxeval}
minimize 0 1e-10 100 ${maxeval}
minimize 0 1e-10 100 1000
Neighbor list info ...
  update every 1 steps, delay 0 steps, check yes
  max neighbors/atom: 2000, page size: 100000
[...]
     154            0   -127989.98   -30.363986   -62.073384    14.670343   -43.688916    7.4359369  -0.26772091  -0.69679096    172.68834    183.15894    9.9702564    315353.35 
     155            0   -127989.98   -30.360094   -62.070142    14.675269    -43.68541    7.4353151  -0.26758487  -0.69737131    172.68834    183.15894    9.9702564    315353.35 
     156            0   -127989.98   -30.356864   -62.068064    14.678925   -43.681453    7.4364818  -0.26755129    -0.695479    172.68834    183.15894    9.9702564    315353.35 
     157            0   -127989.98   -30.355688   -62.065882    14.679157   -43.680338    7.4384593  -0.26750088  -0.69500783    172.68834    183.15894    9.9702564    315353.35 
     158            0   -127989.98   -30.353804   -62.061866    14.680017   -43.679562    7.4367683   -0.2673931  -0.69592551    172.68834    183.15894    9.9702564    315353.35 
     159            0   -127989.98    -30.35142   -62.058527    14.683105   -43.678839    7.4343997  -0.26740216   -0.6950208    172.68834    183.15894    9.9702564    315353.35 
     160            0   -127989.98   -30.352515   -62.061157    14.681509   -43.677896     7.435763  -0.26708059  -0.69509571    172.68834    183.15894    9.9702564    315353.35 
     161            0   -127989.98   -30.354573   -62.063066    14.678045   -43.678697    7.4375566  -0.26857653  -0.69715899    172.68834    183.15894    9.9702564    315353.35 
     162            0   -127989.98   -30.353607   -62.060284    14.680252   -43.680788     7.436314  -0.26916934  -0.69696421    172.68834    183.15894    9.9702564    315353.35 
     163            0   -127989.98   -30.352694   -62.058775    14.681974   -43.681282    7.4352149  -0.26804293  -0.69585129    172.68834    183.15894    9.9702564    315353.35 
     164            0   -127989.98   -30.352595   -62.059246    14.682712   -43.681252    7.4338924  -0.26791006  -0.69547958    172.68834    183.15894    9.9702564    315353.35 
     165            0   -127989.98   -30.350418    -62.05683    14.684731   -43.679156      7.43345  -0.26797474  -0.69529571    172.68834    183.15894    9.9702564    315353.35 
     166            0   -127989.98   -30.349484   -62.055032    14.684549    -43.67797    7.4360227  -0.26819494  -0.69539475    172.68834    183.15894    9.9702564    315353.35 
     167            0   -127989.98   -30.349791   -62.055237    14.683843   -43.677979    7.4356445  -0.26881901  -0.69559521    172.68834    183.15894    9.9702564    315353.35 
     168            0   -127989.98   -30.348001   -62.053624    14.685659   -43.676037    7.4346537  -0.26783006  -0.69577201    172.68834    183.15894    9.9702564    315353.35 
     169            0   -127989.98   -30.348471   -62.054585    14.685955   -43.676783    7.4350733  -0.26771104  -0.69583712    172.68834    183.15894    9.9702564    315353.35 
     170            0   -127989.98   -30.351984   -62.058615    14.683049   -43.680385    7.4354188  -0.26960825  -0.69567953    172.68834    183.15894    9.9702564    315353.35 
     171            0   -127989.98   -30.353832    -62.05943    14.679476   -43.681543    7.4354265  -0.26978685  -0.69492448    172.68834    183.15894    9.9702564    315353.35 
     172            0   -127989.98   -30.355129   -62.059671    14.676727   -43.682442    7.4351098  -0.26776371   -0.6940043    172.68834    183.15894    9.9702564    315353.35 
     173            0   -127989.98   -30.358294   -62.063658    14.675202   -43.686425    7.4363747  -0.26626366  -0.69509363    172.68834    183.15894    9.9702564    315353.35 
     174            0   -127989.98   -30.360507    -62.06659    14.671859   -43.686791    7.4375688  -0.26748815     -0.69489    172.68834    183.15894    9.9702564    315353.35 
     175            0   -127989.98   -30.360638   -62.066041    14.669699   -43.685574    7.4380774  -0.26860774  -0.69521147    172.68834    183.15894    9.9702564    315353.35 
     176            0   -127989.98   -30.362174   -62.067645    14.667276   -43.686154    7.4385423  -0.26901836  -0.69557862    172.68834    183.15894    9.9702564    315353.35 
     177            0   -127989.98   -30.363394   -62.069421    14.665011   -43.685772    7.4382561  -0.26761974  -0.69449531    172.68834    183.15894    9.9702564    315353.35 
     178            0   -127989.98   -30.362821   -62.070232     14.66578    -43.68401    7.4387845  -0.26592554  -0.69359492    172.68834    183.15894    9.9702564    315353.35 
     179            0   -127989.98   -30.363513   -62.071861    14.665139   -43.683816     7.440705  -0.26683193  -0.69326174    172.68834    183.15894    9.9702564    315353.35 
     180            0   -127989.98   -30.364351    -62.07261    14.662734   -43.683177    7.4416862  -0.26858063  -0.69414493    172.68834    183.15894    9.9702564    315353.35 
     181            0   -127989.98   -30.364016   -62.071666    14.660491   -43.680874    7.4421118  -0.26851577  -0.69432503    172.68834    183.15894    9.9702564    315353.35 
     182            0   -127989.98   -30.362882   -62.070919    14.661699   -43.679427    7.4426621  -0.26735011  -0.69434615    172.68834    183.15894    9.9702564    315353.35 
     183            0   -127989.98   -30.361473   -62.070711     14.66373   -43.677438    7.4433018  -0.26674011  -0.69402286    172.68834    183.15894    9.9702564    315353.35 
     184            0   -127989.98   -30.360058   -62.070288    14.664625    -43.67451    7.4440555  -0.26782563  -0.69298741    172.68834    183.15894    9.9702564    315353.35 
     185            0   -127989.98     -30.3593   -62.069342    14.664481   -43.673038    7.4451376  -0.26842066  -0.69331668    172.68834    183.15894    9.9702564    315353.35 
     186            0   -127989.98   -30.358387   -62.068315    14.666246   -43.673093    7.4468702  -0.26714795  -0.69439501    172.68834    183.15894    9.9702564    315353.35 
     187            0   -127989.98   -30.357651   -62.067994    14.667296   -43.672256    7.4485984   -0.2672681   -0.6932692    172.68834    183.15894    9.9702564    315353.35 
     188            0   -127989.98   -30.357095   -62.068082    14.667889   -43.671093    7.4487424  -0.26725804  -0.69310475    172.68834    183.15894    9.9702564    315353.35 
     189            0   -127989.98   -30.357809   -62.067655    14.665644   -43.671416    7.4492735  -0.26764008  -0.69333619    172.68834    183.15894    9.9702564    315353.35 
     190            0   -127989.98   -30.357876   -62.067338     14.66569   -43.671982    7.4514099   -0.2679187  -0.69330722    172.68834    183.15894    9.9702564    315353.35 
     191            0   -127989.98    -30.35707   -62.069443     14.66939   -43.671158      7.45415  -0.26761785  -0.69387089    172.68834    183.15894    9.9702564    315353.35 
     192            0   -127989.98   -30.356935   -62.070323    14.669657   -43.670139    7.4552074   -0.2675771  -0.69433358    172.68834    183.15894    9.9702564    315353.35 
     193            0   -127989.98   -30.355772   -62.068507    14.669425   -43.668235    7.4543657   -0.2680862  -0.69437574    172.68834    183.15894    9.9702564    315353.35 
     194            0   -127989.98   -30.354859    -62.06807    14.670518   -43.667023    7.4551541  -0.26830819  -0.69397185    172.68834    183.15894    9.9702564    315353.35 
     195            0   -127989.98   -30.355842   -62.070813    14.669928   -43.666642    7.4578674  -0.26778332  -0.69308718    172.68834    183.15894    9.9702564    315353.35 
     196            0   -127989.98   -30.356525   -62.073925    14.670211   -43.665862    7.4601661  -0.26736844  -0.69291908    172.68834    183.15894    9.9702564    315353.35 
     197            0   -127989.98   -30.356258   -62.075184     14.67193   -43.665521    7.4610363  -0.26773304  -0.69396193    172.68834    183.15894    9.9702564    315353.35 
     198            0   -127989.98   -30.358025   -62.077178    14.670143   -43.667039    7.4607168  -0.26818871  -0.69428305    172.68834    183.15894    9.9702564    315353.35 
     199            0   -127989.98   -30.359897   -62.078985     14.66699   -43.667696    7.4611389  -0.26885295   -0.6939543    172.68834    183.15894    9.9702564    315353.35 
     200            0   -127989.98   -30.360928    -62.08064    14.665994   -43.668138     7.462027  -0.26865897  -0.69327962    172.68834    183.15894    9.9702564    315353.35 
Loop time of 9.47158 on 1 procs for 100 steps with 28800 atoms

98.7% CPU use with 1 MPI tasks x no OpenMP threads

Minimization stats:
  Stopping criterion = max iterations
  Energy initial, next-to-last, final = 
     -127987.877225227  -127989.983324518  -127989.983326164
  Force two-norm initial, final = 5.9222927 0.0043752343
  Force max component initial, final = 0.087154370 8.2112530e-05
  Final line search alpha, max atom move = 1.0000000 8.2112530e-05
  Iterations, force evaluations = 100 200

MPI task timing breakdown:
Section |  min time  |  avg time  |  max time  |%varavg| %total
---------------------------------------------------------------
Pair    | 9.2671     | 9.2671     | 9.2671     |   0.0 | 97.84
Neigh   | 0          | 0          | 0          |   0.0 |  0.00
Comm    | 0.046095   | 0.046095   | 0.046095   |   0.0 |  0.49
Output  | 0.057184   | 0.057184   | 0.057184   |   0.0 |  0.60
Modify  | 0          | 0          | 0          |   0.0 |  0.00
Other   |            | 0.1012     |            |       |  1.07

Nlocal:        28800.0 ave       28800 max       28800 min
Histogram: 1 0 0 0 0 0 0 0 0 0
Nghost:        55590.0 ave       55590 max       55590 min
Histogram: 1 0 0 0 0 0 0 0 0 0
Neighs:    2.53440e+06 ave  2.5344e+06 max  2.5344e+06 min
Histogram: 1 0 0 0 0 0 0 0 0 0

Total # of neighbors = 2534400
Ave neighs/atom = 88.000000
Neighbor list builds = 0
Dangerous builds = 0

# Obtain new stress tensor

variable tmp equal pe
variable e1 equal ${tmp}
variable e1 equal -127989.983326164
variable tmp equal press
variable p1 equal ${tmp}
variable p1 equal -30.3609282155437
variable tmp equal pxx
variable pxx1 equal ${tmp}
variable pxx1 equal -62.0806401479093
variable tmp equal pyy
variable pyy1 equal ${tmp}
variable pyy1 equal 14.665993821314
variable tmp equal pzz
variable pzz1 equal ${tmp}
variable pzz1 equal -43.6681383200358
variable tmp equal pxy
variable pxy1 equal ${tmp}
variable pxy1 equal 7.46202697839016
variable tmp equal pxz
variable pxz1 equal ${tmp}
variable pxz1 equal -0.268658968588205
variable tmp equal pyz
variable pyz1 equal ${tmp}
variable pyz1 equal -0.693279617321227

# Compute elastic constant from pressure tensor

variable C1pos equal ${d1}
variable C1pos equal -1756.03225037366
variable C2pos equal ${d2}
variable C2pos equal -1688.81488762566
variable C3pos equal ${d3}
variable C3pos equal -1025.77467656097
variable C4pos equal ${d4}
variable C4pos equal 89.201316600316
variable C5pos equal ${d5}
variable C5pos equal 99.2755586765902
variable C6pos equal ${d6}
variable C6pos equal 302.836913027444

# Combine positive and negative

variable C1${dir} equal 0.5*(${C1neg}+${C1pos})
variable C16 equal 0.5*(${C1neg}+${C1pos})
variable C16 equal 0.5*(1830.57212680324+${C1pos})
variable C16 equal 0.5*(1830.57212680324+-1756.03225037366)
variable C2${dir} equal 0.5*(${C2neg}+${C2pos})
variable C26 equal 0.5*(${C2neg}+${C2pos})
variable C26 equal 0.5*(1688.74565690042+${C2pos})
variable C26 equal 0.5*(1688.74565690042+-1688.81488762566)
variable C3${dir} equal 0.5*(${C3neg}+${C3pos})
variable C36 equal 0.5*(${C3neg}+${C3pos})
variable C36 equal 0.5*(951.10296585971+${C3pos})
variable C36 equal 0.5*(951.10296585971+-1025.77467656097)
variable C4${dir} equal 0.5*(${C4neg}+${C4pos})
variable C46 equal 0.5*(${C4neg}+${C4pos})
variable C46 equal 0.5*(-89.196165151979+${C4pos})
variable C46 equal 0.5*(-89.196165151979+89.201316600316)
variable C5${dir} equal 0.5*(${C5neg}+${C5pos})
variable C56 equal 0.5*(${C5neg}+${C5pos})
variable C56 equal 0.5*(-99.2741755549499+${C5pos})
variable C56 equal 0.5*(-99.2741755549499+99.2755586765902)
variable C6${dir} equal 0.5*(${C6neg}+${C6pos})
variable C66 equal 0.5*(${C6neg}+${C6pos})
variable C66 equal 0.5*(-156.124258096223+${C6pos})
variable C66 equal 0.5*(-156.124258096223+302.836913027444)

# Delete dir to make sure it is not reused

variable dir delete

# Output final values

variable C11all equal ${C11}
variable C11all equal 324.34344781617
variable C22all equal ${C22}
variable C22all equal 350.72763543813
variable C33all equal ${C33}
variable C33all equal 324.481824021315

variable C12all equal 0.5*(${C12}+${C21})
variable C12all equal 0.5*(98.50832437234+${C21})
variable C12all equal 0.5*(98.50832437234+98.51590015791)
variable C13all equal 0.5*(${C13}+${C31})
variable C13all equal 0.5*(124.911616919225+${C31})
variable C13all equal 0.5*(124.911616919225+124.913369127666)
variable C23all equal 0.5*(${C23}+${C32})
variable C23all equal 0.5*(98.5366223119699+${C32})
variable C23all equal 0.5*(98.5366223119699+98.530744382915)

variable C44all equal ${C44}
variable C44all equal 73.3622119146707
variable C55all equal ${C55}
variable C55all equal 99.7263737976008
variable C66all equal ${C66}
variable C66all equal 73.3563274656105

variable C14all equal 0.5*(${C14}+${C41})
variable C14all equal 0.5*(-0.000633008810041247+${C41})
variable C14all equal 0.5*(-0.000633008810041247+-0.000698212437249879)
variable C15all equal 0.5*(${C15}+${C51})
variable C15all equal 0.5*(0.00504691760500009+${C51})
variable C15all equal 0.5*(0.00504691760500009+0.00498307454144964)
variable C16all equal 0.5*(${C16}+${C61})
variable C16all equal 0.5*(37.26993821479+${C61})
variable C16all equal 0.5*(37.26993821479+37.271613656204)

variable C24all equal 0.5*(${C24}+${C42})
variable C24all equal 0.5*(-0.00152743629496399+${C42})
variable C24all equal 0.5*(-0.00152743629496399+-0.00167781874964845)
variable C25all equal 0.5*(${C25}+${C52})
variable C25all equal 0.5*(0.00582348650993936+${C52})
variable C25all equal 0.5*(0.00582348650993936+0.00579869323465232)
variable C26all equal 0.5*(${C26}+${C62})
variable C26all equal 0.5*(-0.0346153626200021+${C62})
variable C26all equal 0.5*(-0.0346153626200021+-0.0346045176480061)

variable C34all equal 0.5*(${C34}+${C43})
variable C34all equal 0.5*(-0.000535528715033706+${C43})
variable C34all equal 0.5*(-0.000535528715033706+-0.000531819355650498)
variable C35all equal 0.5*(${C35}+${C53})
variable C35all equal 0.5*(0.00267504849495026+${C53})
variable C35all equal 0.5*(0.00267504849495026+0.00267214714789787)
variable C36all equal 0.5*(${C36}+${C63})
variable C36all equal 0.5*(-37.33585535063+${C63})
variable C36all equal 0.5*(-37.33585535063+-37.335048233024)

variable C45all equal 0.5*(${C45}+${C54})
variable C45all equal 0.5*(-37.3119069654745+${C54})
variable C45all equal 0.5*(-37.3119069654745+-37.3119127962752)
variable C46all equal 0.5*(${C46}+${C64})
variable C46all equal 0.5*(0.00257572416850138+${C64})
variable C46all equal 0.5*(0.00257572416850138+0.00260041471099726)
variable C56all equal 0.5*(${C56}+${C65})
variable C56all equal 0.5*(0.000691560820143877+${C65})
variable C56all equal 0.5*(0.000691560820143877+0.000694917671992812)

# Average moduli for cubic crystals

variable C11cubic equal (${C11all}+${C22all}+${C33all})/3.0
variable C11cubic equal (324.34344781617+${C22all}+${C33all})/3.0
variable C11cubic equal (324.34344781617+350.72763543813+${C33all})/3.0
variable C11cubic equal (324.34344781617+350.72763543813+324.481824021315)/3.0
variable C12cubic equal (${C12all}+${C13all}+${C23all})/3.0
variable C12cubic equal (98.512112265125+${C13all}+${C23all})/3.0
variable C12cubic equal (98.512112265125+124.912493023446+${C23all})/3.0
variable C12cubic equal (98.512112265125+124.912493023446+98.5336833474424)/3.0
variable C44cubic equal (${C44all}+${C55all}+${C66all})/3.0
variable C44cubic equal (73.3622119146707+${C55all}+${C66all})/3.0
variable C44cubic equal (73.3622119146707+99.7263737976008+${C66all})/3.0
variable C44cubic equal (73.3622119146707+99.7263737976008+73.3563274656105)/3.0

variable bulkmodulus equal (${C11cubic}+2*${C12cubic})/3.0
variable bulkmodulus equal (333.184302425205+2*${C12cubic})/3.0
variable bulkmodulus equal (333.184302425205+2*107.319429545338)/3.0
variable shearmodulus1 equal ${C44cubic}
variable shearmodulus1 equal 82.1483043926273
variable shearmodulus2 equal (${C11cubic}-${C12cubic})/2.0
variable shearmodulus2 equal (333.184302425205-${C12cubic})/2.0
variable shearmodulus2 equal (333.184302425205-107.319429545338)/2.0
variable poissonratio equal 1.0/(1.0+${C11cubic}/${C12cubic})
variable poissonratio equal 1.0/(1.0+333.184302425205/${C12cubic})
variable poissonratio equal 1.0/(1.0+333.184302425205/107.319429545338)

# For Stillinger-Weber silicon, the analytical results
# are known to be (E. R. Cowley, 1988):
#               C11 = 151.4 GPa
#               C12 = 76.4 GPa
#               C44 = 56.4 GPa

print "========================================="
=========================================
print "Components of the Elastic Constant Tensor"
Components of the Elastic Constant Tensor
print "========================================="
=========================================

print "Elastic Constant C11all = ${C11all} ${cunits}"
Elastic Constant C11all = 324.34344781617 GPa
print "Elastic Constant C22all = ${C22all} ${cunits}"
Elastic Constant C22all = 350.72763543813 GPa
print "Elastic Constant C33all = ${C33all} ${cunits}"
Elastic Constant C33all = 324.481824021315 GPa

print "Elastic Constant C12all = ${C12all} ${cunits}"
Elastic Constant C12all = 98.512112265125 GPa
print "Elastic Constant C13all = ${C13all} ${cunits}"
Elastic Constant C13all = 124.912493023446 GPa
print "Elastic Constant C23all = ${C23all} ${cunits}"
Elastic Constant C23all = 98.5336833474424 GPa

print "Elastic Constant C44all = ${C44all} ${cunits}"
Elastic Constant C44all = 73.3622119146707 GPa
print "Elastic Constant C55all = ${C55all} ${cunits}"
Elastic Constant C55all = 99.7263737976008 GPa
print "Elastic Constant C66all = ${C66all} ${cunits}"
Elastic Constant C66all = 73.3563274656105 GPa

print "Elastic Constant C14all = ${C14all} ${cunits}"
Elastic Constant C14all = -0.000665610623645563 GPa
print "Elastic Constant C15all = ${C15all} ${cunits}"
Elastic Constant C15all = 0.00501499607322486 GPa
print "Elastic Constant C16all = ${C16all} ${cunits}"
Elastic Constant C16all = 37.270775935497 GPa

print "Elastic Constant C24all = ${C24all} ${cunits}"
Elastic Constant C24all = -0.00160262752230622 GPa
print "Elastic Constant C25all = ${C25all} ${cunits}"
Elastic Constant C25all = 0.00581108987229584 GPa
print "Elastic Constant C26all = ${C26all} ${cunits}"
Elastic Constant C26all = -0.0346099401340041 GPa

print "Elastic Constant C34all = ${C34all} ${cunits}"
Elastic Constant C34all = -0.000533674035342102 GPa
print "Elastic Constant C35all = ${C35all} ${cunits}"
Elastic Constant C35all = 0.00267359782142406 GPa
print "Elastic Constant C36all = ${C36all} ${cunits}"
Elastic Constant C36all = -37.335451791827 GPa

print "Elastic Constant C45all = ${C45all} ${cunits}"
Elastic Constant C45all = -37.3119098808749 GPa
print "Elastic Constant C46all = ${C46all} ${cunits}"
Elastic Constant C46all = 0.00258806943974932 GPa
print "Elastic Constant C56all = ${C56all} ${cunits}"
Elastic Constant C56all = 0.000693239246068345 GPa

print "========================================="
=========================================
print "Average properties for a cubic crystal"
Average properties for a cubic crystal
print "========================================="
=========================================

print "Bulk Modulus = ${bulkmodulus} ${cunits}"
Bulk Modulus = 182.607720505294 GPa
print "Shear Modulus 1 = ${shearmodulus1} ${cunits}"
Shear Modulus 1 = 82.1483043926273 GPa
print "Shear Modulus 2 = ${shearmodulus2} ${cunits}"
Shear Modulus 2 = 112.932436439933 GPa
print "Poisson Ratio = ${poissonratio}"
Poisson Ratio = 0.243628877025075
Total wall time: 0:02:55
